
     Program PWSCF v.6.8 starts on  8Apr2022 at 12:42:25 

     This program is part of the open-source Quantum ESPRESSO suite
     for quantum simulation of materials; please cite
         "P. Giannozzi et al., J. Phys.:Condens. Matter 21 395502 (2009);
         "P. Giannozzi et al., J. Phys.:Condens. Matter 29 465901 (2017);
         "P. Giannozzi et al., J. Chem. Phys. 152 154105 (2020);
          URL http://www.quantum-espresso.org", 
     in publications or presentations arising from this work. More details at
     http://www.quantum-espresso.org/quote

     Parallel version (MPI), running on   128 processors

     MPI processes distributed on     1 nodes
     K-points division:     npool     =      16
     R & G space division:  proc/nbgrp/npool/nimage =       8
     229686 MiB available memory on the printing compute node when the environment starts

     Reading input from aiida.in

     Current dimensions of program PWSCF are:
     Max number of different atomic species (ntypx) = 10
     Max number of k-points (npk) =  40000
     Max angular momentum in pseudopotentials (lmaxx) =  4
     Message from routine setup:
     using ibrav=0 with symmetry is DISCOURAGED, use correct ibrav instead

     Subspace diagonalization in iterative solution of the eigenvalue problem:
     one sub-group per band group will be used
     scalapack distributed-memory algorithm (size of sub-group:  2*  2 procs)


     Parallelization info
     --------------------
     sticks:   dense  smooth     PW     G-vecs:    dense   smooth      PW
     Min         129     129     39                 2759     2759     461
     Max         130     130     40                 2761     2761     463
     Sum        1039    1039    313                22075    22075    3695

     Using Slab Decomposition



     bravais-lattice index     =            0
     lattice parameter (alat)  =       8.2521  a.u.
     unit-cell volume          =     397.3538 (a.u.)^3
     number of atoms/cell      =            2
     number of atomic types    =            1
     number of electrons       =        38.00
     number of Kohn-Sham states=           23
     kinetic-energy cutoff     =      55.0000  Ry
     charge density cutoff     =     220.0000  Ry
     scf convergence threshold =      2.0E-10
     mixing beta               =       0.4000
     number of iterations used =            8  plain     mixing
     Exchange-correlation= PBE
                           (   1   4   3   4   0   0   0)

     celldm(1)=   8.252093  celldm(2)=   0.000000  celldm(3)=   0.000000
     celldm(4)=   0.000000  celldm(5)=   0.000000  celldm(6)=   0.000000

     crystal axes: (cart. coord. in units of alat)
               a(1) = (   0.000000   0.707107   0.707107 )  
               a(2) = (   0.707107   0.000000   0.707107 )  
               a(3) = (   0.707107   0.707107   0.000000 )  

     reciprocal axes: (cart. coord. in units 2 pi/alat)
               b(1) = ( -0.707107  0.707107  0.707107 )  
               b(2) = (  0.707107 -0.707107  0.707107 )  
               b(3) = (  0.707107  0.707107 -0.707107 )  


     PseudoPot. # 1 for Ag read from file:
     ./pseudo/Ag_ONCV_PBE-1.0.oncvpsp.upf
     MD5 check sum: 94f47bd0669c641108e45594df92fabc
     Pseudo is Norm-conserving, Zval = 19.0
     Generated using ONCVPSP code by D. R. Hamann
     Using radial grid of 1398 points,  6 beta functions with: 
                l(1) =   0
                l(2) =   0
                l(3) =   1
                l(4) =   1
                l(5) =   2
                l(6) =   2

     atomic species   valence    mass     pseudopotential
        Ag            19.00   107.86820     Ag( 1.00)

     48 Sym. Ops., with inversion, found (24 have fractional translation)


                                    s                        frac. trans.

      isym =  1     identity                                     

 cryst.   s( 1) = (     1          0          0      )
                  (     0          1          0      )
                  (     0          0          1      )

 cart.    s( 1) = (  1.0000000 -0.0000000  0.0000000 )
                  ( -0.0000000  1.0000000  0.0000000 )
                  ( -0.0000000  0.0000000  1.0000000 )


      isym =  2     180 deg rotation - cart. axis [0,0,1]        

 cryst.   s( 2) = (     0          1         -1      )
                  (     1          0         -1      )
                  (     0          0         -1      )

 cart.    s( 2) = ( -1.0000000  0.0000000  0.0000000 )
                  (  0.0000000 -1.0000000  0.0000000 )
                  (  0.0000000 -0.0000000  1.0000000 )


      isym =  3     180 deg rotation - cart. axis [0,1,0]        

 cryst.   s( 3) = (     0         -1          1      )
                  (     0         -1          0      )
                  (     1         -1          0      )

 cart.    s( 3) = ( -1.0000000 -0.0000000 -0.0000000 )
                  (  0.0000000  1.0000000 -0.0000000 )
                  (  0.0000000  0.0000000 -1.0000000 )


      isym =  4     180 deg rotation - cart. axis [1,0,0]        

 cryst.   s( 4) = (    -1          0          0      )
                  (    -1          0          1      )
                  (    -1          1          0      )

 cart.    s( 4) = (  1.0000000  0.0000000 -0.0000000 )
                  ( -0.0000000 -1.0000000 -0.0000000 )
                  ( -0.0000000 -0.0000000 -1.0000000 )


      isym =  5     180 deg rotation - cart. axis [1,1,0]        

 cryst.   s( 5) = (    -1          0          1      )    f =( -0.2500000 )
                  (     0         -1          1      )       ( -0.2500000 )
                  (     0          0          1      )       ( -0.2500000 )

 cart.    s( 5) = ( -0.0000000  1.0000000 -0.0000000 )    f =( -0.3535534 )
                  (  1.0000000 -0.0000000 -0.0000000 )       ( -0.3535534 )
                  (  0.0000000 -0.0000000 -1.0000000 )       ( -0.3535534 )


      isym =  6     180 deg rotation - cart. axis [1,-1,0]       

 cryst.   s( 6) = (     0         -1          0      )    f =( -0.2500000 )
                  (    -1          0          0      )       ( -0.2500000 )
                  (     0          0         -1      )       ( -0.2500000 )

 cart.    s( 6) = (  0.0000000 -1.0000000 -0.0000000 )    f =( -0.3535534 )
                  ( -1.0000000  0.0000000 -0.0000000 )       ( -0.3535534 )
                  ( -0.0000000  0.0000000 -1.0000000 )       ( -0.3535534 )


      isym =  7      90 deg rotation - cart. axis [0,0,-1]       

 cryst.   s( 7) = (     0          1          0      )    f =( -0.2500000 )
                  (     0          1         -1      )       ( -0.2500000 )
                  (    -1          1          0      )       ( -0.2500000 )

 cart.    s( 7) = (  0.0000000  1.0000000  0.0000000 )    f =( -0.3535534 )
                  ( -1.0000000 -0.0000000  0.0000000 )       ( -0.3535534 )
                  ( -0.0000000 -0.0000000  1.0000000 )       ( -0.3535534 )


      isym =  8      90 deg rotation - cart. axis [0,0,1]        

 cryst.   s( 8) = (     1          0         -1      )    f =( -0.2500000 )
                  (     1          0          0      )       ( -0.2500000 )
                  (     1         -1          0      )       ( -0.2500000 )

 cart.    s( 8) = ( -0.0000000 -1.0000000  0.0000000 )    f =( -0.3535534 )
                  (  1.0000000  0.0000000  0.0000000 )       ( -0.3535534 )
                  (  0.0000000  0.0000000  1.0000000 )       ( -0.3535534 )


      isym =  9     180 deg rotation - cart. axis [1,0,1]        

 cryst.   s( 9) = (    -1          1          0      )    f =( -0.2500000 )
                  (     0          1          0      )       ( -0.2500000 )
                  (     0          1         -1      )       ( -0.2500000 )

 cart.    s( 9) = (  0.0000000  0.0000000  1.0000000 )    f =( -0.3535534 )
                  (  0.0000000 -1.0000000 -0.0000000 )       ( -0.3535534 )
                  (  1.0000000 -0.0000000 -0.0000000 )       ( -0.3535534 )


      isym = 10     180 deg rotation - cart. axis [-1,0,1]       

 cryst.   s(10) = (     0          0         -1      )    f =( -0.2500000 )
                  (     0         -1          0      )       ( -0.2500000 )
                  (    -1          0          0      )       ( -0.2500000 )

 cart.    s(10) = ( -0.0000000  0.0000000 -1.0000000 )    f =( -0.3535534 )
                  ( -0.0000000 -1.0000000  0.0000000 )       ( -0.3535534 )
                  ( -1.0000000 -0.0000000  0.0000000 )       ( -0.3535534 )


      isym = 11      90 deg rotation - cart. axis [0,1,0]        

 cryst.   s(11) = (     0          0          1      )    f =( -0.2500000 )
                  (    -1          0          1      )       ( -0.2500000 )
                  (     0         -1          1      )       ( -0.2500000 )

 cart.    s(11) = ( -0.0000000 -0.0000000  1.0000000 )    f =( -0.3535534 )
                  ( -0.0000000  1.0000000 -0.0000000 )       ( -0.3535534 )
                  ( -1.0000000  0.0000000 -0.0000000 )       ( -0.3535534 )


      isym = 12      90 deg rotation - cart. axis [0,-1,0]       

 cryst.   s(12) = (     1         -1          0      )    f =( -0.2500000 )
                  (     1          0         -1      )       ( -0.2500000 )
                  (     1          0          0      )       ( -0.2500000 )

 cart.    s(12) = (  0.0000000 -0.0000000 -1.0000000 )    f =( -0.3535534 )
                  (  0.0000000  1.0000000  0.0000000 )       ( -0.3535534 )
                  (  1.0000000  0.0000000  0.0000000 )       ( -0.3535534 )


      isym = 13     180 deg rotation - cart. axis [0,1,1]        

 cryst.   s(13) = (     1          0          0      )    f =( -0.2500000 )
                  (     1         -1          0      )       ( -0.2500000 )
                  (     1          0         -1      )       ( -0.2500000 )

 cart.    s(13) = ( -1.0000000  0.0000000 -0.0000000 )    f =( -0.3535534 )
                  (  0.0000000  0.0000000  1.0000000 )       ( -0.3535534 )
                  (  0.0000000  1.0000000  0.0000000 )       ( -0.3535534 )


      isym = 14     180 deg rotation - cart. axis [0,1,-1]       

 cryst.   s(14) = (    -1          0          0      )    f =( -0.2500000 )
                  (     0          0         -1      )       ( -0.2500000 )
                  (     0         -1          0      )       ( -0.2500000 )

 cart.    s(14) = ( -1.0000000 -0.0000000  0.0000000 )    f =( -0.3535534 )
                  (  0.0000000 -0.0000000 -1.0000000 )       ( -0.3535534 )
                  (  0.0000000 -1.0000000 -0.0000000 )       ( -0.3535534 )


      isym = 15      90 deg rotation - cart. axis [-1,0,0]       

 cryst.   s(15) = (     0         -1          1      )    f =( -0.2500000 )
                  (     0          0          1      )       ( -0.2500000 )
                  (    -1          0          1      )       ( -0.2500000 )

 cart.    s(15) = (  1.0000000 -0.0000000 -0.0000000 )    f =( -0.3535534 )
                  ( -0.0000000 -0.0000000  1.0000000 )       ( -0.3535534 )
                  ( -0.0000000 -1.0000000  0.0000000 )       ( -0.3535534 )


      isym = 16      90 deg rotation - cart. axis [1,0,0]        

 cryst.   s(16) = (     0          1         -1      )    f =( -0.2500000 )
                  (    -1          1          0      )       ( -0.2500000 )
                  (     0          1          0      )       ( -0.2500000 )

 cart.    s(16) = (  1.0000000  0.0000000  0.0000000 )    f =( -0.3535534 )
                  ( -0.0000000  0.0000000 -1.0000000 )       ( -0.3535534 )
                  ( -0.0000000  1.0000000 -0.0000000 )       ( -0.3535534 )


      isym = 17     120 deg rotation - cart. axis [-1,-1,-1]     

 cryst.   s(17) = (     0          0          1      )
                  (     1          0          0      )
                  (     0          1          0      )

 cart.    s(17) = (  0.0000000  1.0000000 -0.0000000 )
                  (  0.0000000 -0.0000000  1.0000000 )
                  (  1.0000000 -0.0000000  0.0000000 )


      isym = 18     120 deg rotation - cart. axis [-1,1,1]       

 cryst.   s(18) = (     1         -1          0      )
                  (     0         -1          1      )
                  (     0         -1          0      )

 cart.    s(18) = ( -0.0000000 -1.0000000 -0.0000000 )
                  ( -0.0000000  0.0000000  1.0000000 )
                  ( -1.0000000  0.0000000  0.0000000 )


      isym = 19     120 deg rotation - cart. axis [1,1,-1]       

 cryst.   s(19) = (    -1          1          0      )
                  (    -1          0          0      )
                  (    -1          0          1      )

 cart.    s(19) = ( -0.0000000  1.0000000  0.0000000 )
                  ( -0.0000000 -0.0000000 -1.0000000 )
                  ( -1.0000000 -0.0000000 -0.0000000 )


      isym = 20     120 deg rotation - cart. axis [1,-1,1]       

 cryst.   s(20) = (     0          0         -1      )
                  (     0          1         -1      )
                  (     1          0         -1      )

 cart.    s(20) = (  0.0000000 -1.0000000  0.0000000 )
                  (  0.0000000  0.0000000 -1.0000000 )
                  (  1.0000000  0.0000000 -0.0000000 )


      isym = 21     120 deg rotation - cart. axis [1,1,1]        

 cryst.   s(21) = (     0          1          0      )
                  (     0          0          1      )
                  (     1          0          0      )

 cart.    s(21) = ( -0.0000000  0.0000000  1.0000000 )
                  (  1.0000000  0.0000000 -0.0000000 )
                  (  0.0000000  1.0000000 -0.0000000 )


      isym = 22     120 deg rotation - cart. axis [-1,1,-1]      

 cryst.   s(22) = (    -1          0          1      )
                  (    -1          1          0      )
                  (    -1          0          0      )

 cart.    s(22) = (  0.0000000 -0.0000000  1.0000000 )
                  ( -1.0000000 -0.0000000 -0.0000000 )
                  ( -0.0000000 -1.0000000 -0.0000000 )


      isym = 23     120 deg rotation - cart. axis [1,-1,-1]      

 cryst.   s(23) = (     1          0         -1      )
                  (     0          0         -1      )
                  (     0          1         -1      )

 cart.    s(23) = (  0.0000000  0.0000000 -1.0000000 )
                  ( -1.0000000  0.0000000  0.0000000 )
                  ( -0.0000000  1.0000000  0.0000000 )


      isym = 24     120 deg rotation - cart. axis [-1,-1,1]      

 cryst.   s(24) = (     0         -1          0      )
                  (     1         -1          0      )
                  (     0         -1          1      )

 cart.    s(24) = ( -0.0000000 -0.0000000 -1.0000000 )
                  (  1.0000000 -0.0000000  0.0000000 )
                  (  0.0000000 -1.0000000  0.0000000 )


      isym = 25     inversion                                    

 cryst.   s(25) = (    -1          0          0      )    f =( -0.2500000 )
                  (     0         -1          0      )       ( -0.2500000 )
                  (     0          0         -1      )       ( -0.2500000 )

 cart.    s(25) = ( -1.0000000  0.0000000 -0.0000000 )    f =( -0.3535534 )
                  (  0.0000000 -1.0000000 -0.0000000 )       ( -0.3535534 )
                  (  0.0000000 -0.0000000 -1.0000000 )       ( -0.3535534 )


      isym = 26     inv. 180 deg rotation - cart. axis [0,0,1]   

 cryst.   s(26) = (     0         -1          1      )    f =( -0.2500000 )
                  (    -1          0          1      )       ( -0.2500000 )
                  (     0          0          1      )       ( -0.2500000 )

 cart.    s(26) = (  1.0000000 -0.0000000 -0.0000000 )    f =( -0.3535534 )
                  ( -0.0000000  1.0000000 -0.0000000 )       ( -0.3535534 )
                  ( -0.0000000  0.0000000 -1.0000000 )       ( -0.3535534 )


      isym = 27     inv. 180 deg rotation - cart. axis [0,1,0]   

 cryst.   s(27) = (     0          1         -1      )    f =( -0.2500000 )
                  (     0          1          0      )       ( -0.2500000 )
                  (    -1          1          0      )       ( -0.2500000 )

 cart.    s(27) = (  1.0000000  0.0000000  0.0000000 )    f =( -0.3535534 )
                  ( -0.0000000 -1.0000000  0.0000000 )       ( -0.3535534 )
                  ( -0.0000000 -0.0000000  1.0000000 )       ( -0.3535534 )


      isym = 28     inv. 180 deg rotation - cart. axis [1,0,0]   

 cryst.   s(28) = (     1          0          0      )    f =( -0.2500000 )
                  (     1          0         -1      )       ( -0.2500000 )
                  (     1         -1          0      )       ( -0.2500000 )

 cart.    s(28) = ( -1.0000000 -0.0000000  0.0000000 )    f =( -0.3535534 )
                  (  0.0000000  1.0000000  0.0000000 )       ( -0.3535534 )
                  (  0.0000000  0.0000000  1.0000000 )       ( -0.3535534 )


      isym = 29     inv. 180 deg rotation - cart. axis [1,1,0]   

 cryst.   s(29) = (     1          0         -1      )
                  (     0          1         -1      )
                  (     0          0         -1      )

 cart.    s(29) = (  0.0000000 -1.0000000  0.0000000 )
                  ( -1.0000000  0.0000000  0.0000000 )
                  ( -0.0000000  0.0000000  1.0000000 )


      isym = 30     inv. 180 deg rotation - cart. axis [1,-1,0]  

 cryst.   s(30) = (     0          1          0      )
                  (     1          0          0      )
                  (     0          0          1      )

 cart.    s(30) = ( -0.0000000  1.0000000  0.0000000 )
                  (  1.0000000 -0.0000000  0.0000000 )
                  (  0.0000000 -0.0000000  1.0000000 )


      isym = 31     inv.  90 deg rotation - cart. axis [0,0,-1]  

 cryst.   s(31) = (     0         -1          0      )
                  (     0         -1          1      )
                  (     1         -1          0      )

 cart.    s(31) = ( -0.0000000 -1.0000000 -0.0000000 )
                  (  1.0000000  0.0000000 -0.0000000 )
                  (  0.0000000  0.0000000 -1.0000000 )


      isym = 32     inv.  90 deg rotation - cart. axis [0,0,1]   

 cryst.   s(32) = (    -1          0          1      )
                  (    -1          0          0      )
                  (    -1          1          0      )

 cart.    s(32) = (  0.0000000  1.0000000 -0.0000000 )
                  ( -1.0000000 -0.0000000 -0.0000000 )
                  ( -0.0000000 -0.0000000 -1.0000000 )


      isym = 33     inv. 180 deg rotation - cart. axis [1,0,1]   

 cryst.   s(33) = (     1         -1          0      )
                  (     0         -1          0      )
                  (     0         -1          1      )

 cart.    s(33) = ( -0.0000000 -0.0000000 -1.0000000 )
                  ( -0.0000000  1.0000000  0.0000000 )
                  ( -1.0000000  0.0000000  0.0000000 )


      isym = 34     inv. 180 deg rotation - cart. axis [-1,0,1]  

 cryst.   s(34) = (     0          0          1      )
                  (     0          1          0      )
                  (     1          0          0      )

 cart.    s(34) = (  0.0000000 -0.0000000  1.0000000 )
                  (  0.0000000  1.0000000 -0.0000000 )
                  (  1.0000000  0.0000000 -0.0000000 )


      isym = 35     inv.  90 deg rotation - cart. axis [0,1,0]   

 cryst.   s(35) = (     0          0         -1      )
                  (     1          0         -1      )
                  (     0          1         -1      )

 cart.    s(35) = (  0.0000000  0.0000000 -1.0000000 )
                  (  0.0000000 -1.0000000  0.0000000 )
                  (  1.0000000 -0.0000000  0.0000000 )


      isym = 36     inv.  90 deg rotation - cart. axis [0,-1,0]  

 cryst.   s(36) = (    -1          1          0      )
                  (    -1          0          1      )
                  (    -1          0          0      )

 cart.    s(36) = ( -0.0000000  0.0000000  1.0000000 )
                  ( -0.0000000 -1.0000000 -0.0000000 )
                  ( -1.0000000 -0.0000000 -0.0000000 )


      isym = 37     inv. 180 deg rotation - cart. axis [0,1,1]   

 cryst.   s(37) = (    -1          0          0      )
                  (    -1          1          0      )
                  (    -1          0          1      )

 cart.    s(37) = (  1.0000000 -0.0000000  0.0000000 )
                  ( -0.0000000 -0.0000000 -1.0000000 )
                  ( -0.0000000 -1.0000000 -0.0000000 )


      isym = 38     inv. 180 deg rotation - cart. axis [0,1,-1]  

 cryst.   s(38) = (     1          0          0      )
                  (     0          0          1      )
                  (     0          1          0      )

 cart.    s(38) = (  1.0000000  0.0000000 -0.0000000 )
                  ( -0.0000000  0.0000000  1.0000000 )
                  ( -0.0000000  1.0000000  0.0000000 )


      isym = 39     inv.  90 deg rotation - cart. axis [-1,0,0]  

 cryst.   s(39) = (     0          1         -1      )
                  (     0          0         -1      )
                  (     1          0         -1      )

 cart.    s(39) = ( -1.0000000  0.0000000  0.0000000 )
                  (  0.0000000  0.0000000 -1.0000000 )
                  (  0.0000000  1.0000000 -0.0000000 )


      isym = 40     inv.  90 deg rotation - cart. axis [1,0,0]   

 cryst.   s(40) = (     0         -1          1      )
                  (     1         -1          0      )
                  (     0         -1          0      )

 cart.    s(40) = ( -1.0000000 -0.0000000 -0.0000000 )
                  (  0.0000000 -0.0000000  1.0000000 )
                  (  0.0000000 -1.0000000  0.0000000 )


      isym = 41     inv. 120 deg rotation - cart. axis [-1,-1,-1]

 cryst.   s(41) = (     0          0         -1      )    f =( -0.2500000 )
                  (    -1          0          0      )       ( -0.2500000 )
                  (     0         -1          0      )       ( -0.2500000 )

 cart.    s(41) = ( -0.0000000 -1.0000000  0.0000000 )    f =( -0.3535534 )
                  ( -0.0000000  0.0000000 -1.0000000 )       ( -0.3535534 )
                  ( -1.0000000  0.0000000 -0.0000000 )       ( -0.3535534 )


      isym = 42     inv. 120 deg rotation - cart. axis [-1,1,1]  

 cryst.   s(42) = (    -1          1          0      )    f =( -0.2500000 )
                  (     0          1         -1      )       ( -0.2500000 )
                  (     0          1          0      )       ( -0.2500000 )

 cart.    s(42) = (  0.0000000  1.0000000  0.0000000 )    f =( -0.3535534 )
                  (  0.0000000 -0.0000000 -1.0000000 )       ( -0.3535534 )
                  (  1.0000000 -0.0000000 -0.0000000 )       ( -0.3535534 )


      isym = 43     inv. 120 deg rotation - cart. axis [1,1,-1]  

 cryst.   s(43) = (     1         -1          0      )    f =( -0.2500000 )
                  (     1          0          0      )       ( -0.2500000 )
                  (     1          0         -1      )       ( -0.2500000 )

 cart.    s(43) = (  0.0000000 -1.0000000 -0.0000000 )    f =( -0.3535534 )
                  (  0.0000000  0.0000000  1.0000000 )       ( -0.3535534 )
                  (  1.0000000  0.0000000  0.0000000 )       ( -0.3535534 )


      isym = 44     inv. 120 deg rotation - cart. axis [1,-1,1]  

 cryst.   s(44) = (     0          0          1      )    f =( -0.2500000 )
                  (     0         -1          1      )       ( -0.2500000 )
                  (    -1          0          1      )       ( -0.2500000 )

 cart.    s(44) = ( -0.0000000  1.0000000 -0.0000000 )    f =( -0.3535534 )
                  ( -0.0000000 -0.0000000  1.0000000 )       ( -0.3535534 )
                  ( -1.0000000 -0.0000000  0.0000000 )       ( -0.3535534 )


      isym = 45     inv. 120 deg rotation - cart. axis [1,1,1]   

 cryst.   s(45) = (     0         -1          0      )    f =( -0.2500000 )
                  (     0          0         -1      )       ( -0.2500000 )
                  (    -1          0          0      )       ( -0.2500000 )

 cart.    s(45) = (  0.0000000 -0.0000000 -1.0000000 )    f =( -0.3535534 )
                  ( -1.0000000 -0.0000000  0.0000000 )       ( -0.3535534 )
                  ( -0.0000000 -1.0000000  0.0000000 )       ( -0.3535534 )


      isym = 46     inv. 120 deg rotation - cart. axis [-1,1,-1] 

 cryst.   s(46) = (     1          0         -1      )    f =( -0.2500000 )
                  (     1         -1          0      )       ( -0.2500000 )
                  (     1          0          0      )       ( -0.2500000 )

 cart.    s(46) = ( -0.0000000  0.0000000 -1.0000000 )    f =( -0.3535534 )
                  (  1.0000000  0.0000000  0.0000000 )       ( -0.3535534 )
                  (  0.0000000  1.0000000  0.0000000 )       ( -0.3535534 )


      isym = 47     inv. 120 deg rotation - cart. axis [1,-1,-1] 

 cryst.   s(47) = (    -1          0          1      )    f =( -0.2500000 )
                  (     0          0          1      )       ( -0.2500000 )
                  (     0         -1          1      )       ( -0.2500000 )

 cart.    s(47) = ( -0.0000000 -0.0000000  1.0000000 )    f =( -0.3535534 )
                  (  1.0000000 -0.0000000 -0.0000000 )       ( -0.3535534 )
                  (  0.0000000 -1.0000000 -0.0000000 )       ( -0.3535534 )


      isym = 48     inv. 120 deg rotation - cart. axis [-1,-1,1] 

 cryst.   s(48) = (     0          1          0      )    f =( -0.2500000 )
                  (    -1          1          0      )       ( -0.2500000 )
                  (     0          1         -1      )       ( -0.2500000 )

 cart.    s(48) = (  0.0000000  0.0000000  1.0000000 )    f =( -0.3535534 )
                  ( -1.0000000  0.0000000 -0.0000000 )       ( -0.3535534 )
                  ( -0.0000000  1.0000000 -0.0000000 )       ( -0.3535534 )


   Cartesian axes

     site n.     atom                  positions (alat units)
         1           Ag  tau(   1) = (   0.0000000   0.0000000   0.0000000  )
         2           Ag  tau(   2) = (   0.3535534   0.3535534   0.3535534  )

   Crystallographic axes

     site n.     atom                  positions (cryst. coord.)
         1           Ag  tau(   1) = (  0.0000000  0.0000000  0.0000000  )
         2           Ag  tau(   2) = (  0.2500000  0.2500000  0.2500000  )

     number of k points=   752  Fermi-Dirac smearing, width (Ry)=  0.0045
                       cart. coord. in units 2pi/alat
        k(    1) = (   0.0000000   0.0000000   0.0000000), wk =   0.0000741
        k(    2) = (   0.0235702   0.0235702  -0.0235702), wk =   0.0005926
        k(    3) = (   0.0471405   0.0471405  -0.0471405), wk =   0.0005926
        k(    4) = (   0.0707107   0.0707107  -0.0707107), wk =   0.0005926
        k(    5) = (   0.0942809   0.0942809  -0.0942809), wk =   0.0005926
        k(    6) = (   0.1178511   0.1178511  -0.1178511), wk =   0.0005926
        k(    7) = (   0.1414214   0.1414214  -0.1414214), wk =   0.0005926
        k(    8) = (   0.1649916   0.1649916  -0.1649916), wk =   0.0005926
        k(    9) = (   0.1885618   0.1885618  -0.1885618), wk =   0.0005926
        k(   10) = (   0.2121320   0.2121320  -0.2121320), wk =   0.0005926
        k(   11) = (   0.2357023   0.2357023  -0.2357023), wk =   0.0005926
        k(   12) = (   0.2592725   0.2592725  -0.2592725), wk =   0.0005926
        k(   13) = (   0.2828427   0.2828427  -0.2828427), wk =   0.0005926
        k(   14) = (   0.3064129   0.3064129  -0.3064129), wk =   0.0005926
        k(   15) = (   0.3299832   0.3299832  -0.3299832), wk =   0.0005926
        k(   16) = (  -0.3535534  -0.3535534   0.3535534), wk =   0.0002963
        k(   17) = (   0.0471405   0.0000000  -0.0000000), wk =   0.0004444
        k(   18) = (   0.0707107   0.0235702  -0.0235702), wk =   0.0017778
        k(   19) = (   0.0942809   0.0471405  -0.0471405), wk =   0.0017778
        k(   20) = (   0.1178511   0.0707107  -0.0707107), wk =   0.0017778
        k(   21) = (   0.1414214   0.0942809  -0.0942809), wk =   0.0017778
        k(   22) = (   0.1649916   0.1178511  -0.1178511), wk =   0.0017778
        k(   23) = (   0.1885618   0.1414214  -0.1414214), wk =   0.0017778
        k(   24) = (   0.2121320   0.1649916  -0.1649916), wk =   0.0017778
        k(   25) = (   0.2357023   0.1885618  -0.1885618), wk =   0.0017778
        k(   26) = (   0.2592725   0.2121320  -0.2121320), wk =   0.0017778
        k(   27) = (   0.2828427   0.2357023  -0.2357023), wk =   0.0017778
        k(   28) = (   0.3064129   0.2592725  -0.2592725), wk =   0.0017778
        k(   29) = (   0.3299832   0.2828427  -0.2828427), wk =   0.0017778
        k(   30) = (   0.3535534   0.3064129  -0.3064129), wk =   0.0017778
        k(   31) = (  -0.3299832  -0.3771236   0.3771236), wk =   0.0017778
        k(   32) = (  -0.3064129  -0.3535534   0.3535534), wk =   0.0017778
        k(   33) = (  -0.2828427  -0.3299832   0.3299832), wk =   0.0017778
        k(   34) = (  -0.2592725  -0.3064129   0.3064129), wk =   0.0017778
        k(   35) = (  -0.2357023  -0.2828427   0.2828427), wk =   0.0017778
        k(   36) = (  -0.2121320  -0.2592725   0.2592725), wk =   0.0017778
        k(   37) = (  -0.1885618  -0.2357023   0.2357023), wk =   0.0017778
        k(   38) = (  -0.1649916  -0.2121320   0.2121320), wk =   0.0017778
        k(   39) = (  -0.1414214  -0.1885618   0.1885618), wk =   0.0017778
        k(   40) = (  -0.1178511  -0.1649916   0.1649916), wk =   0.0017778
        k(   41) = (  -0.0942809  -0.1414214   0.1414214), wk =   0.0017778
        k(   42) = (  -0.0707107  -0.1178511   0.1178511), wk =   0.0017778
        k(   43) = (  -0.0471405  -0.0942809   0.0942809), wk =   0.0017778
        k(   44) = (  -0.0235702  -0.0707107   0.0707107), wk =   0.0017778
        k(   45) = (   0.0000000  -0.0471405   0.0471405), wk =   0.0008889
        k(   46) = (   0.0942809   0.0000000  -0.0000000), wk =   0.0004444
        k(   47) = (   0.1178511   0.0235702  -0.0235702), wk =   0.0017778
        k(   48) = (   0.1414214   0.0471405  -0.0471405), wk =   0.0017778
        k(   49) = (   0.1649916   0.0707107  -0.0707107), wk =   0.0017778
        k(   50) = (   0.1885618   0.0942809  -0.0942809), wk =   0.0017778
        k(   51) = (   0.2121320   0.1178511  -0.1178511), wk =   0.0017778
        k(   52) = (   0.2357023   0.1414214  -0.1414214), wk =   0.0017778
        k(   53) = (   0.2592725   0.1649916  -0.1649916), wk =   0.0017778
        k(   54) = (   0.2828427   0.1885618  -0.1885618), wk =   0.0017778
        k(   55) = (   0.3064129   0.2121320  -0.2121320), wk =   0.0017778
        k(   56) = (   0.3299832   0.2357023  -0.2357023), wk =   0.0017778
        k(   57) = (   0.3535534   0.2592725  -0.2592725), wk =   0.0017778
        k(   58) = (   0.3771236   0.2828427  -0.2828427), wk =   0.0017778
        k(   59) = (  -0.3064129  -0.4006938   0.4006938), wk =   0.0017778
        k(   60) = (  -0.2828427  -0.3771236   0.3771236), wk =   0.0017778
        k(   61) = (  -0.2592725  -0.3535534   0.3535534), wk =   0.0017778
        k(   62) = (  -0.2357023  -0.3299832   0.3299832), wk =   0.0017778
        k(   63) = (  -0.2121320  -0.3064129   0.3064129), wk =   0.0017778
        k(   64) = (  -0.1885618  -0.2828427   0.2828427), wk =   0.0017778
        k(   65) = (  -0.1649916  -0.2592725   0.2592725), wk =   0.0017778
        k(   66) = (  -0.1414214  -0.2357023   0.2357023), wk =   0.0017778
        k(   67) = (  -0.1178511  -0.2121320   0.2121320), wk =   0.0017778
        k(   68) = (  -0.0942809  -0.1885618   0.1885618), wk =   0.0017778
        k(   69) = (  -0.0707107  -0.1649916   0.1649916), wk =   0.0017778
        k(   70) = (  -0.0471405  -0.1414214   0.1414214), wk =   0.0017778
        k(   71) = (  -0.0235702  -0.1178511   0.1178511), wk =   0.0017778
        k(   72) = (   0.0000000  -0.0942809   0.0942809), wk =   0.0008889
        k(   73) = (   0.1414214  -0.0000000   0.0000000), wk =   0.0004444
        k(   74) = (   0.1649916   0.0235702  -0.0235702), wk =   0.0017778
        k(   75) = (   0.1885618   0.0471405  -0.0471405), wk =   0.0017778
        k(   76) = (   0.2121320   0.0707107  -0.0707107), wk =   0.0017778
        k(   77) = (   0.2357023   0.0942809  -0.0942809), wk =   0.0017778
        k(   78) = (   0.2592725   0.1178511  -0.1178511), wk =   0.0017778
        k(   79) = (   0.2828427   0.1414214  -0.1414214), wk =   0.0017778
        k(   80) = (   0.3064129   0.1649916  -0.1649916), wk =   0.0017778
        k(   81) = (   0.3299832   0.1885618  -0.1885618), wk =   0.0017778
        k(   82) = (   0.3535534   0.2121320  -0.2121320), wk =   0.0017778
        k(   83) = (   0.3771236   0.2357023  -0.2357023), wk =   0.0017778
        k(   84) = (   0.4006938   0.2592725  -0.2592725), wk =   0.0017778
        k(   85) = (  -0.2828427  -0.4242641   0.4242641), wk =   0.0017778
        k(   86) = (  -0.2592725  -0.4006938   0.4006938), wk =   0.0017778
        k(   87) = (  -0.2357023  -0.3771236   0.3771236), wk =   0.0017778
        k(   88) = (  -0.2121320  -0.3535534   0.3535534), wk =   0.0017778
        k(   89) = (  -0.1885618  -0.3299832   0.3299832), wk =   0.0017778
        k(   90) = (  -0.1649916  -0.3064129   0.3064129), wk =   0.0017778
        k(   91) = (  -0.1414214  -0.2828427   0.2828427), wk =   0.0017778
        k(   92) = (  -0.1178511  -0.2592725   0.2592725), wk =   0.0017778
        k(   93) = (  -0.0942809  -0.2357023   0.2357023), wk =   0.0017778
        k(   94) = (  -0.0707107  -0.2121320   0.2121320), wk =   0.0017778
        k(   95) = (  -0.0471405  -0.1885618   0.1885618), wk =   0.0017778
        k(   96) = (  -0.0235702  -0.1649916   0.1649916), wk =   0.0017778
        k(   97) = (   0.0000000  -0.1414214   0.1414214), wk =   0.0008889
        k(   98) = (   0.1885618   0.0000000  -0.0000000), wk =   0.0004444
        k(   99) = (   0.2121320   0.0235702  -0.0235702), wk =   0.0017778
        k(  100) = (   0.2357023   0.0471405  -0.0471405), wk =   0.0017778
        k(  101) = (   0.2592725   0.0707107  -0.0707107), wk =   0.0017778
        k(  102) = (   0.2828427   0.0942809  -0.0942809), wk =   0.0017778
        k(  103) = (   0.3064129   0.1178511  -0.1178511), wk =   0.0017778
        k(  104) = (   0.3299832   0.1414214  -0.1414214), wk =   0.0017778
        k(  105) = (   0.3535534   0.1649916  -0.1649916), wk =   0.0017778
        k(  106) = (   0.3771236   0.1885618  -0.1885618), wk =   0.0017778
        k(  107) = (   0.4006938   0.2121320  -0.2121320), wk =   0.0017778
        k(  108) = (   0.4242641   0.2357023  -0.2357023), wk =   0.0017778
        k(  109) = (  -0.2592725  -0.4478343   0.4478343), wk =   0.0017778
        k(  110) = (  -0.2357023  -0.4242641   0.4242641), wk =   0.0017778
        k(  111) = (  -0.2121320  -0.4006938   0.4006938), wk =   0.0017778
        k(  112) = (  -0.1885618  -0.3771236   0.3771236), wk =   0.0017778
        k(  113) = (  -0.1649916  -0.3535534   0.3535534), wk =   0.0017778
        k(  114) = (  -0.1414214  -0.3299832   0.3299832), wk =   0.0017778
        k(  115) = (  -0.1178511  -0.3064129   0.3064129), wk =   0.0017778
        k(  116) = (  -0.0942809  -0.2828427   0.2828427), wk =   0.0017778
        k(  117) = (  -0.0707107  -0.2592725   0.2592725), wk =   0.0017778
        k(  118) = (  -0.0471405  -0.2357023   0.2357023), wk =   0.0017778
        k(  119) = (  -0.0235702  -0.2121320   0.2121320), wk =   0.0017778
        k(  120) = (   0.0000000  -0.1885618   0.1885618), wk =   0.0008889
        k(  121) = (   0.2357023   0.0000000  -0.0000000), wk =   0.0004444
        k(  122) = (   0.2592725   0.0235702  -0.0235702), wk =   0.0017778
        k(  123) = (   0.2828427   0.0471405  -0.0471405), wk =   0.0017778
        k(  124) = (   0.3064129   0.0707107  -0.0707107), wk =   0.0017778
        k(  125) = (   0.3299832   0.0942809  -0.0942809), wk =   0.0017778
        k(  126) = (   0.3535534   0.1178511  -0.1178511), wk =   0.0017778
        k(  127) = (   0.3771236   0.1414214  -0.1414214), wk =   0.0017778
        k(  128) = (   0.4006938   0.1649916  -0.1649916), wk =   0.0017778
        k(  129) = (   0.4242641   0.1885618  -0.1885618), wk =   0.0017778
        k(  130) = (   0.4478343   0.2121320  -0.2121320), wk =   0.0017778
        k(  131) = (  -0.2357023  -0.4714045   0.4714045), wk =   0.0017778
        k(  132) = (  -0.2121320  -0.4478343   0.4478343), wk =   0.0017778
        k(  133) = (  -0.1885618  -0.4242641   0.4242641), wk =   0.0017778
        k(  134) = (  -0.1649916  -0.4006938   0.4006938), wk =   0.0017778
        k(  135) = (  -0.1414214  -0.3771236   0.3771236), wk =   0.0017778
        k(  136) = (  -0.1178511  -0.3535534   0.3535534), wk =   0.0017778
        k(  137) = (  -0.0942809  -0.3299832   0.3299832), wk =   0.0017778
        k(  138) = (  -0.0707107  -0.3064129   0.3064129), wk =   0.0017778
        k(  139) = (  -0.0471405  -0.2828427   0.2828427), wk =   0.0017778
        k(  140) = (  -0.0235702  -0.2592725   0.2592725), wk =   0.0017778
        k(  141) = (   0.0000000  -0.2357023   0.2357023), wk =   0.0008889
        k(  142) = (   0.2828427  -0.0000000   0.0000000), wk =   0.0004444
        k(  143) = (   0.3064129   0.0235702  -0.0235702), wk =   0.0017778
        k(  144) = (   0.3299832   0.0471405  -0.0471405), wk =   0.0017778
        k(  145) = (   0.3535534   0.0707107  -0.0707107), wk =   0.0017778
        k(  146) = (   0.3771236   0.0942809  -0.0942809), wk =   0.0017778
        k(  147) = (   0.4006938   0.1178511  -0.1178511), wk =   0.0017778
        k(  148) = (   0.4242641   0.1414214  -0.1414214), wk =   0.0017778
        k(  149) = (   0.4478343   0.1649916  -0.1649916), wk =   0.0017778
        k(  150) = (   0.4714045   0.1885618  -0.1885618), wk =   0.0017778
        k(  151) = (  -0.2121320  -0.4949747   0.4949747), wk =   0.0017778
        k(  152) = (  -0.1885618  -0.4714045   0.4714045), wk =   0.0017778
        k(  153) = (  -0.1649916  -0.4478343   0.4478343), wk =   0.0017778
        k(  154) = (  -0.1414214  -0.4242641   0.4242641), wk =   0.0017778
        k(  155) = (  -0.1178511  -0.4006938   0.4006938), wk =   0.0017778
        k(  156) = (  -0.0942809  -0.3771236   0.3771236), wk =   0.0017778
        k(  157) = (  -0.0707107  -0.3535534   0.3535534), wk =   0.0017778
        k(  158) = (  -0.0471405  -0.3299832   0.3299832), wk =   0.0017778
        k(  159) = (  -0.0235702  -0.3064129   0.3064129), wk =   0.0017778
        k(  160) = (   0.0000000  -0.2828427   0.2828427), wk =   0.0008889
        k(  161) = (   0.3299832  -0.0000000   0.0000000), wk =   0.0004444
        k(  162) = (   0.3535534   0.0235702  -0.0235702), wk =   0.0017778
        k(  163) = (   0.3771236   0.0471405  -0.0471405), wk =   0.0017778
        k(  164) = (   0.4006938   0.0707107  -0.0707107), wk =   0.0017778
        k(  165) = (   0.4242641   0.0942809  -0.0942809), wk =   0.0017778
        k(  166) = (   0.4478343   0.1178511  -0.1178511), wk =   0.0017778
        k(  167) = (   0.4714045   0.1414214  -0.1414214), wk =   0.0017778
        k(  168) = (   0.4949747   0.1649916  -0.1649916), wk =   0.0017778
        k(  169) = (  -0.1885618  -0.5185450   0.5185450), wk =   0.0017778
        k(  170) = (  -0.1649916  -0.4949747   0.4949747), wk =   0.0017778
        k(  171) = (  -0.1414214  -0.4714045   0.4714045), wk =   0.0017778
        k(  172) = (  -0.1178511  -0.4478343   0.4478343), wk =   0.0017778
        k(  173) = (  -0.0942809  -0.4242641   0.4242641), wk =   0.0017778
        k(  174) = (  -0.0707107  -0.4006938   0.4006938), wk =   0.0017778
        k(  175) = (  -0.0471405  -0.3771236   0.3771236), wk =   0.0017778
        k(  176) = (  -0.0235702  -0.3535534   0.3535534), wk =   0.0017778
        k(  177) = (   0.0000000  -0.3299832   0.3299832), wk =   0.0008889
        k(  178) = (   0.3771236   0.0000000  -0.0000000), wk =   0.0004444
        k(  179) = (   0.4006938   0.0235702  -0.0235702), wk =   0.0017778
        k(  180) = (   0.4242641   0.0471405  -0.0471405), wk =   0.0017778
        k(  181) = (   0.4478343   0.0707107  -0.0707107), wk =   0.0017778
        k(  182) = (   0.4714045   0.0942809  -0.0942809), wk =   0.0017778
        k(  183) = (   0.4949747   0.1178511  -0.1178511), wk =   0.0017778
        k(  184) = (   0.5185450   0.1414214  -0.1414214), wk =   0.0017778
        k(  185) = (  -0.1649916  -0.5421152   0.5421152), wk =   0.0017778
        k(  186) = (  -0.1414214  -0.5185450   0.5185450), wk =   0.0017778
        k(  187) = (  -0.1178511  -0.4949747   0.4949747), wk =   0.0017778
        k(  188) = (  -0.0942809  -0.4714045   0.4714045), wk =   0.0017778
        k(  189) = (  -0.0707107  -0.4478343   0.4478343), wk =   0.0017778
        k(  190) = (  -0.0471405  -0.4242641   0.4242641), wk =   0.0017778
        k(  191) = (  -0.0235702  -0.4006938   0.4006938), wk =   0.0017778
        k(  192) = (  -0.0000000  -0.3771236   0.3771236), wk =   0.0008889
        k(  193) = (   0.4242641   0.0000000  -0.0000000), wk =   0.0004444
        k(  194) = (   0.4478343   0.0235702  -0.0235702), wk =   0.0017778
        k(  195) = (   0.4714045   0.0471405  -0.0471405), wk =   0.0017778
        k(  196) = (   0.4949747   0.0707107  -0.0707107), wk =   0.0017778
        k(  197) = (   0.5185450   0.0942809  -0.0942809), wk =   0.0017778
        k(  198) = (   0.5421152   0.1178511  -0.1178511), wk =   0.0017778
        k(  199) = (  -0.1414214  -0.5656854   0.5656854), wk =   0.0017778
        k(  200) = (  -0.1178511  -0.5421152   0.5421152), wk =   0.0017778
        k(  201) = (  -0.0942809  -0.5185450   0.5185450), wk =   0.0017778
        k(  202) = (  -0.0707107  -0.4949747   0.4949747), wk =   0.0017778
        k(  203) = (  -0.0471405  -0.4714045   0.4714045), wk =   0.0017778
        k(  204) = (  -0.0235702  -0.4478343   0.4478343), wk =   0.0017778
        k(  205) = (  -0.0000000  -0.4242641   0.4242641), wk =   0.0008889
        k(  206) = (   0.4714045   0.0000000  -0.0000000), wk =   0.0004444
        k(  207) = (   0.4949747   0.0235702  -0.0235702), wk =   0.0017778
        k(  208) = (   0.5185450   0.0471405  -0.0471405), wk =   0.0017778
        k(  209) = (   0.5421152   0.0707107  -0.0707107), wk =   0.0017778
        k(  210) = (   0.5656854   0.0942809  -0.0942809), wk =   0.0017778
        k(  211) = (  -0.1178511  -0.5892557   0.5892557), wk =   0.0017778
        k(  212) = (  -0.0942809  -0.5656854   0.5656854), wk =   0.0017778
        k(  213) = (  -0.0707107  -0.5421152   0.5421152), wk =   0.0017778
        k(  214) = (  -0.0471405  -0.5185450   0.5185450), wk =   0.0017778
        k(  215) = (  -0.0235702  -0.4949747   0.4949747), wk =   0.0017778
        k(  216) = (  -0.0000000  -0.4714045   0.4714045), wk =   0.0008889
        k(  217) = (   0.5185450  -0.0000000   0.0000000), wk =   0.0004444
        k(  218) = (   0.5421152   0.0235702  -0.0235702), wk =   0.0017778
        k(  219) = (   0.5656854   0.0471405  -0.0471405), wk =   0.0017778
        k(  220) = (   0.5892557   0.0707107  -0.0707107), wk =   0.0017778
        k(  221) = (  -0.0942809  -0.6128259   0.6128259), wk =   0.0017778
        k(  222) = (  -0.0707107  -0.5892557   0.5892557), wk =   0.0017778
        k(  223) = (  -0.0471405  -0.5656854   0.5656854), wk =   0.0017778
        k(  224) = (  -0.0235702  -0.5421152   0.5421152), wk =   0.0017778
        k(  225) = (  -0.0000000  -0.5185450   0.5185450), wk =   0.0008889
        k(  226) = (   0.5656854  -0.0000000   0.0000000), wk =   0.0004444
        k(  227) = (   0.5892557   0.0235702  -0.0235702), wk =   0.0017778
        k(  228) = (   0.6128259   0.0471405  -0.0471405), wk =   0.0017778
        k(  229) = (  -0.0707107  -0.6363961   0.6363961), wk =   0.0017778
        k(  230) = (  -0.0471405  -0.6128259   0.6128259), wk =   0.0017778
        k(  231) = (  -0.0235702  -0.5892557   0.5892557), wk =   0.0017778
        k(  232) = (   0.0000000  -0.5656854   0.5656854), wk =   0.0008889
        k(  233) = (   0.6128259   0.0000000  -0.0000000), wk =   0.0004444
        k(  234) = (   0.6363961   0.0235702  -0.0235702), wk =   0.0017778
        k(  235) = (  -0.0471405  -0.6599663   0.6599663), wk =   0.0017778
        k(  236) = (  -0.0235702  -0.6363961   0.6363961), wk =   0.0017778
        k(  237) = (  -0.0000000  -0.6128259   0.6128259), wk =   0.0008889
        k(  238) = (   0.6599663  -0.0000000   0.0000000), wk =   0.0004444
        k(  239) = (  -0.0235702  -0.6835366   0.6835366), wk =   0.0017778
        k(  240) = (   0.0000000  -0.6599663   0.6599663), wk =   0.0008889
        k(  241) = (  -0.7071068   0.0000000   0.0000000), wk =   0.0002222
        k(  242) = (   0.0942809   0.0471405  -0.0000000), wk =   0.0017778
        k(  243) = (   0.1178511   0.0707107  -0.0235702), wk =   0.0035556
        k(  244) = (   0.1414214   0.0942809  -0.0471405), wk =   0.0035556
        k(  245) = (   0.1649916   0.1178511  -0.0707107), wk =   0.0035556
        k(  246) = (   0.1885618   0.1414214  -0.0942809), wk =   0.0035556
        k(  247) = (   0.2121320   0.1649916  -0.1178511), wk =   0.0035556
        k(  248) = (   0.2357023   0.1885618  -0.1414214), wk =   0.0035556
        k(  249) = (   0.2592725   0.2121320  -0.1649916), wk =   0.0035556
        k(  250) = (   0.2828427   0.2357023  -0.1885618), wk =   0.0035556
        k(  251) = (   0.3064129   0.2592725  -0.2121320), wk =   0.0035556
        k(  252) = (   0.3299832   0.2828427  -0.2357023), wk =   0.0035556
        k(  253) = (   0.3535534   0.3064129  -0.2592725), wk =   0.0035556
        k(  254) = (  -0.3299832  -0.3771236   0.4242641), wk =   0.0035556
        k(  255) = (  -0.3064129  -0.3535534   0.4006938), wk =   0.0017778
        k(  256) = (   0.1414214   0.0471405   0.0000000), wk =   0.0017778
        k(  257) = (   0.1649916   0.0707107  -0.0235702), wk =   0.0035556
        k(  258) = (   0.1885618   0.0942809  -0.0471405), wk =   0.0035556
        k(  259) = (   0.2121320   0.1178511  -0.0707107), wk =   0.0035556
        k(  260) = (   0.2357023   0.1414214  -0.0942809), wk =   0.0035556
        k(  261) = (   0.2592725   0.1649916  -0.1178511), wk =   0.0035556
        k(  262) = (   0.2828427   0.1885618  -0.1414214), wk =   0.0035556
        k(  263) = (   0.3064129   0.2121320  -0.1649916), wk =   0.0035556
        k(  264) = (   0.3299832   0.2357023  -0.1885618), wk =   0.0035556
        k(  265) = (   0.3535534   0.2592725  -0.2121320), wk =   0.0035556
        k(  266) = (   0.3771236   0.2828427  -0.2357023), wk =   0.0035556
        k(  267) = (  -0.3064129  -0.4006938   0.4478343), wk =   0.0035556
        k(  268) = (  -0.2828427  -0.3771236   0.4242641), wk =   0.0035556
        k(  269) = (  -0.2592725  -0.3535534   0.4006938), wk =   0.0035556
        k(  270) = (  -0.2357023  -0.3299832   0.3771236), wk =   0.0035556
        k(  271) = (  -0.2121320  -0.3064129   0.3535534), wk =   0.0035556
        k(  272) = (  -0.1885618  -0.2828427   0.3299832), wk =   0.0035556
        k(  273) = (  -0.1649916  -0.2592725   0.3064129), wk =   0.0035556
        k(  274) = (  -0.1414214  -0.2357023   0.2828427), wk =   0.0035556
        k(  275) = (  -0.1178511  -0.2121320   0.2592725), wk =   0.0035556
        k(  276) = (  -0.0942809  -0.1885618   0.2357023), wk =   0.0035556
        k(  277) = (  -0.0707107  -0.1649916   0.2121320), wk =   0.0035556
        k(  278) = (  -0.0471405  -0.1414214   0.1885618), wk =   0.0035556
        k(  279) = (  -0.0235702  -0.1178511   0.1649916), wk =   0.0035556
        k(  280) = (   0.0000000  -0.0942809   0.1414214), wk =   0.0017778
        k(  281) = (   0.1885618   0.0471405  -0.0000000), wk =   0.0017778
        k(  282) = (   0.2121320   0.0707107  -0.0235702), wk =   0.0035556
        k(  283) = (   0.2357023   0.0942809  -0.0471405), wk =   0.0035556
        k(  284) = (   0.2592725   0.1178511  -0.0707107), wk =   0.0035556
        k(  285) = (   0.2828427   0.1414214  -0.0942809), wk =   0.0035556
        k(  286) = (   0.3064129   0.1649916  -0.1178511), wk =   0.0035556
        k(  287) = (   0.3299832   0.1885618  -0.1414214), wk =   0.0035556
        k(  288) = (   0.3535534   0.2121320  -0.1649916), wk =   0.0035556
        k(  289) = (   0.3771236   0.2357023  -0.1885618), wk =   0.0035556
        k(  290) = (   0.4006938   0.2592725  -0.2121320), wk =   0.0035556
        k(  291) = (  -0.2828427  -0.4242641   0.4714045), wk =   0.0035556
        k(  292) = (  -0.2592725  -0.4006938   0.4478343), wk =   0.0035556
        k(  293) = (  -0.2357023  -0.3771236   0.4242641), wk =   0.0035556
        k(  294) = (  -0.2121320  -0.3535534   0.4006938), wk =   0.0035556
        k(  295) = (  -0.1885618  -0.3299832   0.3771236), wk =   0.0035556
        k(  296) = (  -0.1649916  -0.3064129   0.3535534), wk =   0.0035556
        k(  297) = (  -0.1414214  -0.2828427   0.3299832), wk =   0.0035556
        k(  298) = (  -0.1178511  -0.2592725   0.3064129), wk =   0.0035556
        k(  299) = (  -0.0942809  -0.2357023   0.2828427), wk =   0.0035556
        k(  300) = (  -0.0707107  -0.2121320   0.2592725), wk =   0.0035556
        k(  301) = (  -0.0471405  -0.1885618   0.2357023), wk =   0.0035556
        k(  302) = (  -0.0235702  -0.1649916   0.2121320), wk =   0.0035556
        k(  303) = (   0.0000000  -0.1414214   0.1885618), wk =   0.0017778
        k(  304) = (   0.2357023   0.0471405  -0.0000000), wk =   0.0017778
        k(  305) = (   0.2592725   0.0707107  -0.0235702), wk =   0.0035556
        k(  306) = (   0.2828427   0.0942809  -0.0471405), wk =   0.0035556
        k(  307) = (   0.3064129   0.1178511  -0.0707107), wk =   0.0035556
        k(  308) = (   0.3299832   0.1414214  -0.0942809), wk =   0.0035556
        k(  309) = (   0.3535534   0.1649916  -0.1178511), wk =   0.0035556
        k(  310) = (   0.3771236   0.1885618  -0.1414214), wk =   0.0035556
        k(  311) = (   0.4006938   0.2121320  -0.1649916), wk =   0.0035556
        k(  312) = (   0.4242641   0.2357023  -0.1885618), wk =   0.0035556
        k(  313) = (  -0.2592725  -0.4478343   0.4949747), wk =   0.0035556
        k(  314) = (  -0.2357023  -0.4242641   0.4714045), wk =   0.0035556
        k(  315) = (  -0.2121320  -0.4006938   0.4478343), wk =   0.0035556
        k(  316) = (  -0.1885618  -0.3771236   0.4242641), wk =   0.0035556
        k(  317) = (  -0.1649916  -0.3535534   0.4006938), wk =   0.0035556
        k(  318) = (  -0.1414214  -0.3299832   0.3771236), wk =   0.0035556
        k(  319) = (  -0.1178511  -0.3064129   0.3535534), wk =   0.0035556
        k(  320) = (  -0.0942809  -0.2828427   0.3299832), wk =   0.0035556
        k(  321) = (  -0.0707107  -0.2592725   0.3064129), wk =   0.0035556
        k(  322) = (  -0.0471405  -0.2357023   0.2828427), wk =   0.0035556
        k(  323) = (  -0.0235702  -0.2121320   0.2592725), wk =   0.0035556
        k(  324) = (   0.0000000  -0.1885618   0.2357023), wk =   0.0017778
        k(  325) = (   0.2828427   0.0471405   0.0000000), wk =   0.0017778
        k(  326) = (   0.3064129   0.0707107  -0.0235702), wk =   0.0035556
        k(  327) = (   0.3299832   0.0942809  -0.0471405), wk =   0.0035556
        k(  328) = (   0.3535534   0.1178511  -0.0707107), wk =   0.0035556
        k(  329) = (   0.3771236   0.1414214  -0.0942809), wk =   0.0035556
        k(  330) = (   0.4006938   0.1649916  -0.1178511), wk =   0.0035556
        k(  331) = (   0.4242641   0.1885618  -0.1414214), wk =   0.0035556
        k(  332) = (   0.4478343   0.2121320  -0.1649916), wk =   0.0035556
        k(  333) = (  -0.2357023  -0.4714045   0.5185450), wk =   0.0035556
        k(  334) = (  -0.2121320  -0.4478343   0.4949747), wk =   0.0035556
        k(  335) = (  -0.1885618  -0.4242641   0.4714045), wk =   0.0035556
        k(  336) = (  -0.1649916  -0.4006938   0.4478343), wk =   0.0035556
        k(  337) = (  -0.1414214  -0.3771236   0.4242641), wk =   0.0035556
        k(  338) = (  -0.1178511  -0.3535534   0.4006938), wk =   0.0035556
        k(  339) = (  -0.0942809  -0.3299832   0.3771236), wk =   0.0035556
        k(  340) = (  -0.0707107  -0.3064129   0.3535534), wk =   0.0035556
        k(  341) = (  -0.0471405  -0.2828427   0.3299832), wk =   0.0035556
        k(  342) = (  -0.0235702  -0.2592725   0.3064129), wk =   0.0035556
        k(  343) = (   0.0000000  -0.2357023   0.2828427), wk =   0.0017778
        k(  344) = (   0.3299832   0.0471405   0.0000000), wk =   0.0017778
        k(  345) = (   0.3535534   0.0707107  -0.0235702), wk =   0.0035556
        k(  346) = (   0.3771236   0.0942809  -0.0471405), wk =   0.0035556
        k(  347) = (   0.4006938   0.1178511  -0.0707107), wk =   0.0035556
        k(  348) = (   0.4242641   0.1414214  -0.0942809), wk =   0.0035556
        k(  349) = (   0.4478343   0.1649916  -0.1178511), wk =   0.0035556
        k(  350) = (   0.4714045   0.1885618  -0.1414214), wk =   0.0035556
        k(  351) = (  -0.2121320  -0.4949747   0.5421152), wk =   0.0035556
        k(  352) = (  -0.1885618  -0.4714045   0.5185450), wk =   0.0035556
        k(  353) = (  -0.1649916  -0.4478343   0.4949747), wk =   0.0035556
        k(  354) = (  -0.1414214  -0.4242641   0.4714045), wk =   0.0035556
        k(  355) = (  -0.1178511  -0.4006938   0.4478343), wk =   0.0035556
        k(  356) = (  -0.0942809  -0.3771236   0.4242641), wk =   0.0035556
        k(  357) = (  -0.0707107  -0.3535534   0.4006938), wk =   0.0035556
        k(  358) = (  -0.0471405  -0.3299832   0.3771236), wk =   0.0035556
        k(  359) = (  -0.0235702  -0.3064129   0.3535534), wk =   0.0035556
        k(  360) = (   0.0000000  -0.2828427   0.3299832), wk =   0.0017778
        k(  361) = (   0.3771236   0.0471405  -0.0000000), wk =   0.0017778
        k(  362) = (   0.4006938   0.0707107  -0.0235702), wk =   0.0035556
        k(  363) = (   0.4242641   0.0942809  -0.0471405), wk =   0.0035556
        k(  364) = (   0.4478343   0.1178511  -0.0707107), wk =   0.0035556
        k(  365) = (   0.4714045   0.1414214  -0.0942809), wk =   0.0035556
        k(  366) = (   0.4949747   0.1649916  -0.1178511), wk =   0.0035556
        k(  367) = (  -0.1885618  -0.5185450   0.5656854), wk =   0.0035556
        k(  368) = (  -0.1649916  -0.4949747   0.5421152), wk =   0.0035556
        k(  369) = (  -0.1414214  -0.4714045   0.5185450), wk =   0.0035556
        k(  370) = (  -0.1178511  -0.4478343   0.4949747), wk =   0.0035556
        k(  371) = (  -0.0942809  -0.4242641   0.4714045), wk =   0.0035556
        k(  372) = (  -0.0707107  -0.4006938   0.4478343), wk =   0.0035556
        k(  373) = (  -0.0471405  -0.3771236   0.4242641), wk =   0.0035556
        k(  374) = (  -0.0235702  -0.3535534   0.4006938), wk =   0.0035556
        k(  375) = (   0.0000000  -0.3299832   0.3771236), wk =   0.0017778
        k(  376) = (   0.4242641   0.0471405  -0.0000000), wk =   0.0017778
        k(  377) = (   0.4478343   0.0707107  -0.0235702), wk =   0.0035556
        k(  378) = (   0.4714045   0.0942809  -0.0471405), wk =   0.0035556
        k(  379) = (   0.4949747   0.1178511  -0.0707107), wk =   0.0035556
        k(  380) = (   0.5185450   0.1414214  -0.0942809), wk =   0.0035556
        k(  381) = (  -0.1649916  -0.5421152   0.5892557), wk =   0.0035556
        k(  382) = (  -0.1414214  -0.5185450   0.5656854), wk =   0.0035556
        k(  383) = (  -0.1178511  -0.4949747   0.5421152), wk =   0.0035556
        k(  384) = (  -0.0942809  -0.4714045   0.5185450), wk =   0.0035556
        k(  385) = (  -0.0707107  -0.4478343   0.4949747), wk =   0.0035556
        k(  386) = (  -0.0471405  -0.4242641   0.4714045), wk =   0.0035556
        k(  387) = (  -0.0235702  -0.4006938   0.4478343), wk =   0.0035556
        k(  388) = (  -0.0000000  -0.3771236   0.4242641), wk =   0.0017778
        k(  389) = (   0.4714045   0.0471405   0.0000000), wk =   0.0017778
        k(  390) = (   0.4949747   0.0707107  -0.0235702), wk =   0.0035556
        k(  391) = (   0.5185450   0.0942809  -0.0471405), wk =   0.0035556
        k(  392) = (   0.5421152   0.1178511  -0.0707107), wk =   0.0035556
        k(  393) = (  -0.1414214  -0.5656854   0.6128259), wk =   0.0035556
        k(  394) = (  -0.1178511  -0.5421152   0.5892557), wk =   0.0035556
        k(  395) = (  -0.0942809  -0.5185450   0.5656854), wk =   0.0035556
        k(  396) = (  -0.0707107  -0.4949747   0.5421152), wk =   0.0035556
        k(  397) = (  -0.0471405  -0.4714045   0.5185450), wk =   0.0035556
        k(  398) = (  -0.0235702  -0.4478343   0.4949747), wk =   0.0035556
        k(  399) = (  -0.0000000  -0.4242641   0.4714045), wk =   0.0017778
        k(  400) = (   0.5185450   0.0471405   0.0000000), wk =   0.0017778
        k(  401) = (   0.5421152   0.0707107  -0.0235702), wk =   0.0035556
        k(  402) = (   0.5656854   0.0942809  -0.0471405), wk =   0.0035556
        k(  403) = (  -0.1178511  -0.5892557   0.6363961), wk =   0.0035556
        k(  404) = (  -0.0942809  -0.5656854   0.6128259), wk =   0.0035556
        k(  405) = (  -0.0707107  -0.5421152   0.5892557), wk =   0.0035556
        k(  406) = (  -0.0471405  -0.5185450   0.5656854), wk =   0.0035556
        k(  407) = (  -0.0235702  -0.4949747   0.5421152), wk =   0.0035556
        k(  408) = (  -0.0000000  -0.4714045   0.5185450), wk =   0.0017778
        k(  409) = (   0.5656854   0.0471405   0.0000000), wk =   0.0017778
        k(  410) = (   0.5892557   0.0707107  -0.0235702), wk =   0.0035556
        k(  411) = (  -0.0942809  -0.6128259   0.6599663), wk =   0.0035556
        k(  412) = (  -0.0707107  -0.5892557   0.6363961), wk =   0.0035556
        k(  413) = (  -0.0471405  -0.5656854   0.6128259), wk =   0.0035556
        k(  414) = (  -0.0235702  -0.5421152   0.5892557), wk =   0.0035556
        k(  415) = (  -0.0000000  -0.5185450   0.5656854), wk =   0.0017778
        k(  416) = (   0.6128259   0.0471405   0.0000000), wk =   0.0017778
        k(  417) = (  -0.0707107  -0.6363961   0.6835366), wk =   0.0035556
        k(  418) = (  -0.0471405  -0.6128259   0.6599663), wk =   0.0035556
        k(  419) = (  -0.0235702  -0.5892557   0.6363961), wk =   0.0035556
        k(  420) = (  -0.0000000  -0.5656854   0.6128259), wk =   0.0017778
        k(  421) = (  -0.0471405  -0.6599663   0.7071068), wk =   0.0017778
        k(  422) = (  -0.0235702  -0.6363961   0.6835366), wk =   0.0035556
        k(  423) = (  -0.0000000  -0.6128259   0.6599663), wk =   0.0017778
        k(  424) = (  -0.7071068   0.0471405   0.0000000), wk =   0.0008889
        k(  425) = (   0.1885618   0.0942809  -0.0000000), wk =   0.0017778
        k(  426) = (   0.2121320   0.1178511  -0.0235702), wk =   0.0035556
        k(  427) = (   0.2357023   0.1414214  -0.0471405), wk =   0.0035556
        k(  428) = (   0.2592725   0.1649916  -0.0707107), wk =   0.0035556
        k(  429) = (   0.2828427   0.1885618  -0.0942809), wk =   0.0035556
        k(  430) = (   0.3064129   0.2121320  -0.1178511), wk =   0.0035556
        k(  431) = (   0.3299832   0.2357023  -0.1414214), wk =   0.0035556
        k(  432) = (   0.3535534   0.2592725  -0.1649916), wk =   0.0035556
        k(  433) = (   0.3771236   0.2828427  -0.1885618), wk =   0.0035556
        k(  434) = (  -0.3064129  -0.4006938   0.4949747), wk =   0.0035556
        k(  435) = (  -0.2828427  -0.3771236   0.4714045), wk =   0.0035556
        k(  436) = (  -0.2592725  -0.3535534   0.4478343), wk =   0.0017778
        k(  437) = (   0.2357023   0.0942809  -0.0000000), wk =   0.0017778
        k(  438) = (   0.2592725   0.1178511  -0.0235702), wk =   0.0035556
        k(  439) = (   0.2828427   0.1414214  -0.0471405), wk =   0.0035556
        k(  440) = (   0.3064129   0.1649916  -0.0707107), wk =   0.0035556
        k(  441) = (   0.3299832   0.1885618  -0.0942809), wk =   0.0035556
        k(  442) = (   0.3535534   0.2121320  -0.1178511), wk =   0.0035556
        k(  443) = (   0.3771236   0.2357023  -0.1414214), wk =   0.0035556
        k(  444) = (   0.4006938   0.2592725  -0.1649916), wk =   0.0035556
        k(  445) = (  -0.2828427  -0.4242641   0.5185450), wk =   0.0035556
        k(  446) = (  -0.2592725  -0.4006938   0.4949747), wk =   0.0035556
        k(  447) = (  -0.2357023  -0.3771236   0.4714045), wk =   0.0035556
        k(  448) = (  -0.2121320  -0.3535534   0.4478343), wk =   0.0035556
        k(  449) = (  -0.1885618  -0.3299832   0.4242641), wk =   0.0035556
        k(  450) = (  -0.1649916  -0.3064129   0.4006938), wk =   0.0035556
        k(  451) = (  -0.1414214  -0.2828427   0.3771236), wk =   0.0035556
        k(  452) = (  -0.1178511  -0.2592725   0.3535534), wk =   0.0035556
        k(  453) = (  -0.0942809  -0.2357023   0.3299832), wk =   0.0035556
        k(  454) = (  -0.0707107  -0.2121320   0.3064129), wk =   0.0035556
        k(  455) = (  -0.0471405  -0.1885618   0.2828427), wk =   0.0035556
        k(  456) = (  -0.0235702  -0.1649916   0.2592725), wk =   0.0035556
        k(  457) = (   0.0000000  -0.1414214   0.2357023), wk =   0.0017778
        k(  458) = (   0.2828427   0.0942809   0.0000000), wk =   0.0017778
        k(  459) = (   0.3064129   0.1178511  -0.0235702), wk =   0.0035556
        k(  460) = (   0.3299832   0.1414214  -0.0471405), wk =   0.0035556
        k(  461) = (   0.3535534   0.1649916  -0.0707107), wk =   0.0035556
        k(  462) = (   0.3771236   0.1885618  -0.0942809), wk =   0.0035556
        k(  463) = (   0.4006938   0.2121320  -0.1178511), wk =   0.0035556
        k(  464) = (   0.4242641   0.2357023  -0.1414214), wk =   0.0035556
        k(  465) = (  -0.2592725  -0.4478343   0.5421152), wk =   0.0035556
        k(  466) = (  -0.2357023  -0.4242641   0.5185450), wk =   0.0035556
        k(  467) = (  -0.2121320  -0.4006938   0.4949747), wk =   0.0035556
        k(  468) = (  -0.1885618  -0.3771236   0.4714045), wk =   0.0035556
        k(  469) = (  -0.1649916  -0.3535534   0.4478343), wk =   0.0035556
        k(  470) = (  -0.1414214  -0.3299832   0.4242641), wk =   0.0035556
        k(  471) = (  -0.1178511  -0.3064129   0.4006938), wk =   0.0035556
        k(  472) = (  -0.0942809  -0.2828427   0.3771236), wk =   0.0035556
        k(  473) = (  -0.0707107  -0.2592725   0.3535534), wk =   0.0035556
        k(  474) = (  -0.0471405  -0.2357023   0.3299832), wk =   0.0035556
        k(  475) = (  -0.0235702  -0.2121320   0.3064129), wk =   0.0035556
        k(  476) = (   0.0000000  -0.1885618   0.2828427), wk =   0.0017778
        k(  477) = (   0.3299832   0.0942809   0.0000000), wk =   0.0017778
        k(  478) = (   0.3535534   0.1178511  -0.0235702), wk =   0.0035556
        k(  479) = (   0.3771236   0.1414214  -0.0471405), wk =   0.0035556
        k(  480) = (   0.4006938   0.1649916  -0.0707107), wk =   0.0035556
        k(  481) = (   0.4242641   0.1885618  -0.0942809), wk =   0.0035556
        k(  482) = (   0.4478343   0.2121320  -0.1178511), wk =   0.0035556
        k(  483) = (  -0.2357023  -0.4714045   0.5656854), wk =   0.0035556
        k(  484) = (  -0.2121320  -0.4478343   0.5421152), wk =   0.0035556
        k(  485) = (  -0.1885618  -0.4242641   0.5185450), wk =   0.0035556
        k(  486) = (  -0.1649916  -0.4006938   0.4949747), wk =   0.0035556
        k(  487) = (  -0.1414214  -0.3771236   0.4714045), wk =   0.0035556
        k(  488) = (  -0.1178511  -0.3535534   0.4478343), wk =   0.0035556
        k(  489) = (  -0.0942809  -0.3299832   0.4242641), wk =   0.0035556
        k(  490) = (  -0.0707107  -0.3064129   0.4006938), wk =   0.0035556
        k(  491) = (  -0.0471405  -0.2828427   0.3771236), wk =   0.0035556
        k(  492) = (  -0.0235702  -0.2592725   0.3535534), wk =   0.0035556
        k(  493) = (   0.0000000  -0.2357023   0.3299832), wk =   0.0017778
        k(  494) = (   0.3771236   0.0942809  -0.0000000), wk =   0.0017778
        k(  495) = (   0.4006938   0.1178511  -0.0235702), wk =   0.0035556
        k(  496) = (   0.4242641   0.1414214  -0.0471405), wk =   0.0035556
        k(  497) = (   0.4478343   0.1649916  -0.0707107), wk =   0.0035556
        k(  498) = (   0.4714045   0.1885618  -0.0942809), wk =   0.0035556
        k(  499) = (  -0.2121320  -0.4949747   0.5892557), wk =   0.0035556
        k(  500) = (  -0.1885618  -0.4714045   0.5656854), wk =   0.0035556
        k(  501) = (  -0.1649916  -0.4478343   0.5421152), wk =   0.0035556
        k(  502) = (  -0.1414214  -0.4242641   0.5185450), wk =   0.0035556
        k(  503) = (  -0.1178511  -0.4006938   0.4949747), wk =   0.0035556
        k(  504) = (  -0.0942809  -0.3771236   0.4714045), wk =   0.0035556
        k(  505) = (  -0.0707107  -0.3535534   0.4478343), wk =   0.0035556
        k(  506) = (  -0.0471405  -0.3299832   0.4242641), wk =   0.0035556
        k(  507) = (  -0.0235702  -0.3064129   0.4006938), wk =   0.0035556
        k(  508) = (   0.0000000  -0.2828427   0.3771236), wk =   0.0017778
        k(  509) = (   0.4242641   0.0942809   0.0000000), wk =   0.0017778
        k(  510) = (   0.4478343   0.1178511  -0.0235702), wk =   0.0035556
        k(  511) = (   0.4714045   0.1414214  -0.0471405), wk =   0.0035556
        k(  512) = (   0.4949747   0.1649916  -0.0707107), wk =   0.0035556
        k(  513) = (  -0.1885618  -0.5185450   0.6128259), wk =   0.0035556
        k(  514) = (  -0.1649916  -0.4949747   0.5892557), wk =   0.0035556
        k(  515) = (  -0.1414214  -0.4714045   0.5656854), wk =   0.0035556
        k(  516) = (  -0.1178511  -0.4478343   0.5421152), wk =   0.0035556
        k(  517) = (  -0.0942809  -0.4242641   0.5185450), wk =   0.0035556
        k(  518) = (  -0.0707107  -0.4006938   0.4949747), wk =   0.0035556
        k(  519) = (  -0.0471405  -0.3771236   0.4714045), wk =   0.0035556
        k(  520) = (  -0.0235702  -0.3535534   0.4478343), wk =   0.0035556
        k(  521) = (   0.0000000  -0.3299832   0.4242641), wk =   0.0017778
        k(  522) = (   0.4714045   0.0942809  -0.0000000), wk =   0.0017778
        k(  523) = (   0.4949747   0.1178511  -0.0235702), wk =   0.0035556
        k(  524) = (   0.5185450   0.1414214  -0.0471405), wk =   0.0035556
        k(  525) = (  -0.1649916  -0.5421152   0.6363961), wk =   0.0035556
        k(  526) = (  -0.1414214  -0.5185450   0.6128259), wk =   0.0035556
        k(  527) = (  -0.1178511  -0.4949747   0.5892557), wk =   0.0035556
        k(  528) = (  -0.0942809  -0.4714045   0.5656854), wk =   0.0035556
        k(  529) = (  -0.0707107  -0.4478343   0.5421152), wk =   0.0035556
        k(  530) = (  -0.0471405  -0.4242641   0.5185450), wk =   0.0035556
        k(  531) = (  -0.0235702  -0.4006938   0.4949747), wk =   0.0035556
        k(  532) = (  -0.0000000  -0.3771236   0.4714045), wk =   0.0017778
        k(  533) = (   0.5185450   0.0942809  -0.0000000), wk =   0.0017778
        k(  534) = (   0.5421152   0.1178511  -0.0235702), wk =   0.0035556
        k(  535) = (  -0.1414214  -0.5656854   0.6599663), wk =   0.0035556
        k(  536) = (  -0.1178511  -0.5421152   0.6363961), wk =   0.0035556
        k(  537) = (  -0.0942809  -0.5185450   0.6128259), wk =   0.0035556
        k(  538) = (  -0.0707107  -0.4949747   0.5892557), wk =   0.0035556
        k(  539) = (  -0.0471405  -0.4714045   0.5656854), wk =   0.0035556
        k(  540) = (  -0.0235702  -0.4478343   0.5421152), wk =   0.0035556
        k(  541) = (  -0.0000000  -0.4242641   0.5185450), wk =   0.0017778
        k(  542) = (   0.5656854   0.0942809   0.0000000), wk =   0.0017778
        k(  543) = (  -0.1178511  -0.5892557   0.6835366), wk =   0.0035556
        k(  544) = (  -0.0942809  -0.5656854   0.6599663), wk =   0.0035556
        k(  545) = (  -0.0707107  -0.5421152   0.6363961), wk =   0.0035556
        k(  546) = (  -0.0471405  -0.5185450   0.6128259), wk =   0.0035556
        k(  547) = (  -0.0235702  -0.4949747   0.5892557), wk =   0.0035556
        k(  548) = (   0.0000000  -0.4714045   0.5656854), wk =   0.0017778
        k(  549) = (  -0.0942809  -0.6128259   0.7071068), wk =   0.0017778
        k(  550) = (  -0.0707107  -0.5892557   0.6835366), wk =   0.0035556
        k(  551) = (  -0.0471405  -0.5656854   0.6599663), wk =   0.0035556
        k(  552) = (  -0.0235702  -0.5421152   0.6363961), wk =   0.0035556
        k(  553) = (  -0.0000000  -0.5185450   0.6128259), wk =   0.0017778
        k(  554) = (  -0.0471405  -0.6128259   0.7071068), wk =   0.0017778
        k(  555) = (  -0.0235702  -0.5892557   0.6835366), wk =   0.0035556
        k(  556) = (   0.0000000  -0.5656854   0.6599663), wk =   0.0017778
        k(  557) = (  -0.7071068   0.0942809   0.0000000), wk =   0.0008889
        k(  558) = (   0.2828427   0.1414214   0.0000000), wk =   0.0017778
        k(  559) = (   0.3064129   0.1649916  -0.0235702), wk =   0.0035556
        k(  560) = (   0.3299832   0.1885618  -0.0471405), wk =   0.0035556
        k(  561) = (   0.3535534   0.2121320  -0.0707107), wk =   0.0035556
        k(  562) = (   0.3771236   0.2357023  -0.0942809), wk =   0.0035556
        k(  563) = (   0.4006938   0.2592725  -0.1178511), wk =   0.0035556
        k(  564) = (  -0.2828427  -0.4242641   0.5656854), wk =   0.0035556
        k(  565) = (  -0.2592725  -0.4006938   0.5421152), wk =   0.0035556
        k(  566) = (  -0.2357023  -0.3771236   0.5185450), wk =   0.0035556
        k(  567) = (  -0.2121320  -0.3535534   0.4949747), wk =   0.0017778
        k(  568) = (   0.3299832   0.1414214   0.0000000), wk =   0.0017778
        k(  569) = (   0.3535534   0.1649916  -0.0235702), wk =   0.0035556
        k(  570) = (   0.3771236   0.1885618  -0.0471405), wk =   0.0035556
        k(  571) = (   0.4006938   0.2121320  -0.0707107), wk =   0.0035556
        k(  572) = (   0.4242641   0.2357023  -0.0942809), wk =   0.0035556
        k(  573) = (  -0.2592725  -0.4478343   0.5892557), wk =   0.0035556
        k(  574) = (  -0.2357023  -0.4242641   0.5656854), wk =   0.0035556
        k(  575) = (  -0.2121320  -0.4006938   0.5421152), wk =   0.0035556
        k(  576) = (  -0.1885618  -0.3771236   0.5185450), wk =   0.0035556
        k(  577) = (  -0.1649916  -0.3535534   0.4949747), wk =   0.0035556
        k(  578) = (  -0.1414214  -0.3299832   0.4714045), wk =   0.0035556
        k(  579) = (  -0.1178511  -0.3064129   0.4478343), wk =   0.0035556
        k(  580) = (  -0.0942809  -0.2828427   0.4242641), wk =   0.0035556
        k(  581) = (  -0.0707107  -0.2592725   0.4006938), wk =   0.0035556
        k(  582) = (  -0.0471405  -0.2357023   0.3771236), wk =   0.0035556
        k(  583) = (  -0.0235702  -0.2121320   0.3535534), wk =   0.0035556
        k(  584) = (   0.0000000  -0.1885618   0.3299832), wk =   0.0017778
        k(  585) = (   0.3771236   0.1414214   0.0000000), wk =   0.0017778
        k(  586) = (   0.4006938   0.1649916  -0.0235702), wk =   0.0035556
        k(  587) = (   0.4242641   0.1885618  -0.0471405), wk =   0.0035556
        k(  588) = (   0.4478343   0.2121320  -0.0707107), wk =   0.0035556
        k(  589) = (  -0.2357023  -0.4714045   0.6128259), wk =   0.0035556
        k(  590) = (  -0.2121320  -0.4478343   0.5892557), wk =   0.0035556
        k(  591) = (  -0.1885618  -0.4242641   0.5656854), wk =   0.0035556
        k(  592) = (  -0.1649916  -0.4006938   0.5421152), wk =   0.0035556
        k(  593) = (  -0.1414214  -0.3771236   0.5185450), wk =   0.0035556
        k(  594) = (  -0.1178511  -0.3535534   0.4949747), wk =   0.0035556
        k(  595) = (  -0.0942809  -0.3299832   0.4714045), wk =   0.0035556
        k(  596) = (  -0.0707107  -0.3064129   0.4478343), wk =   0.0035556
        k(  597) = (  -0.0471405  -0.2828427   0.4242641), wk =   0.0035556
        k(  598) = (  -0.0235702  -0.2592725   0.4006938), wk =   0.0035556
        k(  599) = (   0.0000000  -0.2357023   0.3771236), wk =   0.0017778
        k(  600) = (   0.4242641   0.1414214  -0.0000000), wk =   0.0017778
        k(  601) = (   0.4478343   0.1649916  -0.0235702), wk =   0.0035556
        k(  602) = (   0.4714045   0.1885618  -0.0471405), wk =   0.0035556
        k(  603) = (  -0.2121320  -0.4949747   0.6363961), wk =   0.0035556
        k(  604) = (  -0.1885618  -0.4714045   0.6128259), wk =   0.0035556
        k(  605) = (  -0.1649916  -0.4478343   0.5892557), wk =   0.0035556
        k(  606) = (  -0.1414214  -0.4242641   0.5656854), wk =   0.0035556
        k(  607) = (  -0.1178511  -0.4006938   0.5421152), wk =   0.0035556
        k(  608) = (  -0.0942809  -0.3771236   0.5185450), wk =   0.0035556
        k(  609) = (  -0.0707107  -0.3535534   0.4949747), wk =   0.0035556
        k(  610) = (  -0.0471405  -0.3299832   0.4714045), wk =   0.0035556
        k(  611) = (  -0.0235702  -0.3064129   0.4478343), wk =   0.0035556
        k(  612) = (   0.0000000  -0.2828427   0.4242641), wk =   0.0017778
        k(  613) = (   0.4714045   0.1414214  -0.0000000), wk =   0.0017778
        k(  614) = (   0.4949747   0.1649916  -0.0235702), wk =   0.0035556
        k(  615) = (  -0.1885618  -0.5185450   0.6599663), wk =   0.0035556
        k(  616) = (  -0.1649916  -0.4949747   0.6363961), wk =   0.0035556
        k(  617) = (  -0.1414214  -0.4714045   0.6128259), wk =   0.0035556
        k(  618) = (  -0.1178511  -0.4478343   0.5892557), wk =   0.0035556
        k(  619) = (  -0.0942809  -0.4242641   0.5656854), wk =   0.0035556
        k(  620) = (  -0.0707107  -0.4006938   0.5421152), wk =   0.0035556
        k(  621) = (  -0.0471405  -0.3771236   0.5185450), wk =   0.0035556
        k(  622) = (  -0.0235702  -0.3535534   0.4949747), wk =   0.0035556
        k(  623) = (   0.0000000  -0.3299832   0.4714045), wk =   0.0017778
        k(  624) = (   0.5185450   0.1414214   0.0000000), wk =   0.0017778
        k(  625) = (  -0.1649916  -0.5421152   0.6835366), wk =   0.0035556
        k(  626) = (  -0.1414214  -0.5185450   0.6599663), wk =   0.0035556
        k(  627) = (  -0.1178511  -0.4949747   0.6363961), wk =   0.0035556
        k(  628) = (  -0.0942809  -0.4714045   0.6128259), wk =   0.0035556
        k(  629) = (  -0.0707107  -0.4478343   0.5892557), wk =   0.0035556
        k(  630) = (  -0.0471405  -0.4242641   0.5656854), wk =   0.0035556
        k(  631) = (  -0.0235702  -0.4006938   0.5421152), wk =   0.0035556
        k(  632) = (  -0.0000000  -0.3771236   0.5185450), wk =   0.0017778
        k(  633) = (  -0.1414214  -0.5656854   0.7071068), wk =   0.0017778
        k(  634) = (  -0.1178511  -0.5421152   0.6835366), wk =   0.0035556
        k(  635) = (  -0.0942809  -0.5185450   0.6599663), wk =   0.0035556
        k(  636) = (  -0.0707107  -0.4949747   0.6363961), wk =   0.0035556
        k(  637) = (  -0.0471405  -0.4714045   0.6128259), wk =   0.0035556
        k(  638) = (  -0.0235702  -0.4478343   0.5892557), wk =   0.0035556
        k(  639) = (   0.0000000  -0.4242641   0.5656854), wk =   0.0017778
        k(  640) = (  -0.0942809  -0.5656854   0.7071068), wk =   0.0017778
        k(  641) = (  -0.0707107  -0.5421152   0.6835366), wk =   0.0035556
        k(  642) = (  -0.0471405  -0.5185450   0.6599663), wk =   0.0035556
        k(  643) = (  -0.0235702  -0.4949747   0.6363961), wk =   0.0035556
        k(  644) = (  -0.0000000  -0.4714045   0.6128259), wk =   0.0017778
        k(  645) = (  -0.0471405  -0.5656854   0.7071068), wk =   0.0017778
        k(  646) = (  -0.0235702  -0.5421152   0.6835366), wk =   0.0035556
        k(  647) = (  -0.0000000  -0.5185450   0.6599663), wk =   0.0017778
        k(  648) = (  -0.7071068   0.1414214   0.0000000), wk =   0.0008889
        k(  649) = (   0.3771236   0.1885618  -0.0000000), wk =   0.0017778
        k(  650) = (   0.4006938   0.2121320  -0.0235702), wk =   0.0035556
        k(  651) = (   0.4242641   0.2357023  -0.0471405), wk =   0.0035556
        k(  652) = (  -0.2592725  -0.4478343   0.6363961), wk =   0.0035556
        k(  653) = (  -0.2357023  -0.4242641   0.6128259), wk =   0.0035556
        k(  654) = (  -0.2121320  -0.4006938   0.5892557), wk =   0.0035556
        k(  655) = (  -0.1885618  -0.3771236   0.5656854), wk =   0.0035556
        k(  656) = (  -0.1649916  -0.3535534   0.5421152), wk =   0.0017778
        k(  657) = (   0.4242641   0.1885618  -0.0000000), wk =   0.0017778
        k(  658) = (   0.4478343   0.2121320  -0.0235702), wk =   0.0035556
        k(  659) = (  -0.2357023  -0.4714045   0.6599663), wk =   0.0035556
        k(  660) = (  -0.2121320  -0.4478343   0.6363961), wk =   0.0035556
        k(  661) = (  -0.1885618  -0.4242641   0.6128259), wk =   0.0035556
        k(  662) = (  -0.1649916  -0.4006938   0.5892557), wk =   0.0035556
        k(  663) = (  -0.1414214  -0.3771236   0.5656854), wk =   0.0035556
        k(  664) = (  -0.1178511  -0.3535534   0.5421152), wk =   0.0035556
        k(  665) = (  -0.0942809  -0.3299832   0.5185450), wk =   0.0035556
        k(  666) = (  -0.0707107  -0.3064129   0.4949747), wk =   0.0035556
        k(  667) = (  -0.0471405  -0.2828427   0.4714045), wk =   0.0035556
        k(  668) = (  -0.0235702  -0.2592725   0.4478343), wk =   0.0035556
        k(  669) = (   0.0000000  -0.2357023   0.4242641), wk =   0.0017778
        k(  670) = (   0.4714045   0.1885618  -0.0000000), wk =   0.0017778
        k(  671) = (  -0.2121320  -0.4949747   0.6835366), wk =   0.0035556
        k(  672) = (  -0.1885618  -0.4714045   0.6599663), wk =   0.0035556
        k(  673) = (  -0.1649916  -0.4478343   0.6363961), wk =   0.0035556
        k(  674) = (  -0.1414214  -0.4242641   0.6128259), wk =   0.0035556
        k(  675) = (  -0.1178511  -0.4006938   0.5892557), wk =   0.0035556
        k(  676) = (  -0.0942809  -0.3771236   0.5656854), wk =   0.0035556
        k(  677) = (  -0.0707107  -0.3535534   0.5421152), wk =   0.0035556
        k(  678) = (  -0.0471405  -0.3299832   0.5185450), wk =   0.0035556
        k(  679) = (  -0.0235702  -0.3064129   0.4949747), wk =   0.0035556
        k(  680) = (   0.0000000  -0.2828427   0.4714045), wk =   0.0017778
        k(  681) = (  -0.1885618  -0.5185450   0.7071068), wk =   0.0017778
        k(  682) = (  -0.1649916  -0.4949747   0.6835366), wk =   0.0035556
        k(  683) = (  -0.1414214  -0.4714045   0.6599663), wk =   0.0035556
        k(  684) = (  -0.1178511  -0.4478343   0.6363961), wk =   0.0035556
        k(  685) = (  -0.0942809  -0.4242641   0.6128259), wk =   0.0035556
        k(  686) = (  -0.0707107  -0.4006938   0.5892557), wk =   0.0035556
        k(  687) = (  -0.0471405  -0.3771236   0.5656854), wk =   0.0035556
        k(  688) = (  -0.0235702  -0.3535534   0.5421152), wk =   0.0035556
        k(  689) = (   0.0000000  -0.3299832   0.5185450), wk =   0.0017778
        k(  690) = (  -0.1414214  -0.5185450   0.7071068), wk =   0.0017778
        k(  691) = (  -0.1178511  -0.4949747   0.6835366), wk =   0.0035556
        k(  692) = (  -0.0942809  -0.4714045   0.6599663), wk =   0.0035556
        k(  693) = (  -0.0707107  -0.4478343   0.6363961), wk =   0.0035556
        k(  694) = (  -0.0471405  -0.4242641   0.6128259), wk =   0.0035556
        k(  695) = (  -0.0235702  -0.4006938   0.5892557), wk =   0.0035556
        k(  696) = (   0.0000000  -0.3771236   0.5656854), wk =   0.0017778
        k(  697) = (  -0.0942809  -0.5185450   0.7071068), wk =   0.0017778
        k(  698) = (  -0.0707107  -0.4949747   0.6835366), wk =   0.0035556
        k(  699) = (  -0.0471405  -0.4714045   0.6599663), wk =   0.0035556
        k(  700) = (  -0.0235702  -0.4478343   0.6363961), wk =   0.0035556
        k(  701) = (  -0.0000000  -0.4242641   0.6128259), wk =   0.0017778
[...]

     occupation numbers 
     1.0000   1.0000   1.0000   1.0000   1.0000   1.0000   1.0000   1.0000
     1.0000   1.0000   1.0000   1.0000   1.0000   1.0000   1.0000   1.0000
     1.0000   1.0000   0.9820   0.0000   0.0000   0.0000   0.0000

          k =-0.0471-0.4243 0.6600 (  2733 PWs)   bands (ev):

   -83.1259 -83.1223 -46.6605 -46.6587 -46.5937 -46.5786 -46.5132 -46.5115
     3.4839   3.5242   3.9863   4.1197   4.4439   4.6033   4.6911   4.8316
     5.8000   5.8343   8.3393   9.0791  10.5125  11.2932  17.4480

     occupation numbers 
     1.0000   1.0000   1.0000   1.0000   1.0000   1.0000   1.0000   1.0000
     1.0000   1.0000   1.0000   1.0000   1.0000   1.0000   1.0000   1.0000
     1.0000   1.0000   0.4668   0.0000   0.0000   0.0000   0.0000

          k =-0.0236-0.4007 0.6364 (  2736 PWs)   bands (ev):

   -83.1259 -83.1222 -46.6607 -46.6584 -46.5943 -46.5780 -46.5135 -46.5113
     3.4760   3.5258   3.9923   4.1478   4.4226   4.5993   4.6732   4.8373
     5.8025   5.8440   8.4226   9.0169  10.3521  11.3938  17.5287

     occupation numbers 
     1.0000   1.0000   1.0000   1.0000   1.0000   1.0000   1.0000   1.0000
     1.0000   1.0000   1.0000   1.0000   1.0000   1.0000   1.0000   1.0000
     1.0000   1.0000   0.1833   0.0000   0.0000   0.0000   0.0000

          k =-0.0000-0.3771 0.6128 (  2729 PWs)   bands (ev):

   -83.1265 -83.1217 -46.6608 -46.6579 -46.5967 -46.5756 -46.5140 -46.5112
     3.4758   3.5270   3.9897   4.1775   4.3772   4.6253   4.6353   4.8631
     5.8010   5.8421   8.2539   9.1583  10.2941  11.5531  17.6165

     occupation numbers 
     1.0000   1.0000   1.0000   1.0000   1.0000   1.0000   1.0000   1.0000
     1.0000   1.0000   1.0000   1.0000   1.0000   1.0000   1.0000   1.0000
     1.0000   1.0000   0.7792   0.0000   0.0000   0.0000   0.0000

          k =-0.0471-0.4714 0.7071 (  2739 PWs)   bands (ev):

   -83.1256 -83.1225 -46.6601 -46.6593 -46.5920 -46.5803 -46.5127 -46.5118
     3.5087   3.5239   3.9628   4.0443   4.5025   4.6545   4.6961   4.8198
     5.8003   5.8003   8.2427   9.1221  10.8848  11.1203  17.3038

     occupation numbers 
     1.0000   1.0000   1.0000   1.0000   1.0000   1.0000   1.0000   1.0000
     1.0000   1.0000   1.0000   1.0000   1.0000   1.0000   1.0000   1.0000
     1.0000   1.0000   0.8093   0.0000   0.0000   0.0000   0.0000

          k =-0.0236-0.4478 0.6835 (  2739 PWs)   bands (ev):

   -83.1250 -83.1232 -46.6603 -46.6594 -46.5899 -46.5824 -46.5126 -46.5117
     3.4951   3.5193   3.9931   4.0620   4.5136   4.6018   4.7155   4.7945
     5.8049   5.8243   8.5048   8.9260  10.6735  11.0992  17.3634

     occupation numbers 
     1.0000   1.0000   1.0000   1.0000   1.0000   1.0000   1.0000   1.0000
     1.0000   1.0000   1.0000   1.0000   1.0000   1.0000   1.0000   1.0000
     1.0000   1.0000   0.0554   0.0001   0.0000   0.0000   0.0000

          k = 0.0000-0.4243 0.6600 (  2739 PWs)   bands (ev):

   -83.1251 -83.1230 -46.6605 -46.6590 -46.5910 -46.5813 -46.5129 -46.5115
     3.4818   3.5223   3.9974   4.1033   4.4821   4.5909   4.6979   4.8061
     5.8057   5.8392   8.5936   8.8790  10.4504  11.2177  17.4414

     occupation numbers 
     1.0000   1.0000   1.0000   1.0000   1.0000   1.0000   1.0000   1.0000
     1.0000   1.0000   1.0000   1.0000   1.0000   1.0000   1.0000   1.0000
     1.0000   1.0000   0.0136   0.0001   0.0000   0.0000   0.0000

          k =-0.7071 0.2357 0.0000 (  2742 PWs)   bands (ev):

   -83.1241 -83.1241 -46.6599 -46.6599 -46.5862 -46.5862 -46.5121 -46.5121
     3.5147   3.5147   3.9998   3.9998   4.5844   4.5844   4.7563   4.7563
     5.8064   5.8064   8.6876   8.6876  10.9537  10.9537  17.2898

     occupation numbers 
     1.0000   1.0000   1.0000   1.0000   1.0000   1.0000   1.0000   1.0000
     1.0000   1.0000   1.0000   1.0000   1.0000   1.0000   1.0000   1.0000
     1.0000   1.0000   0.0030   0.0030   0.0000   0.0000   0.0000

          k =-0.1414-0.4243 0.7071 (  2727 PWs)   bands (ev):

   -83.1284 -83.1198 -46.6601 -46.6569 -46.6031 -46.5692 -46.5150 -46.5119
     3.5128   3.5197   3.9546   4.1934   4.2943   4.5712   4.7037   4.9492
     5.7803   5.7825   7.5399   9.7271  10.7030  11.8450  17.8064

     occupation numbers 
     1.0000   1.0000   1.0000   1.0000   1.0000   1.0000   1.0000   1.0000
     1.0000   1.0000   1.0000   1.0000   1.0000   1.0000   1.0000   1.0000
     1.0000   1.0000   1.0000   0.0000   0.0000   0.0000   0.0000

          k =-0.1179-0.4007 0.6835 (  2733 PWs)   bands (ev):

   -83.1276 -83.1206 -46.6604 -46.6574 -46.6004 -46.5719 -46.5145 -46.5116
     3.4981   3.5181   3.9773   4.1871   4.3238   4.5868   4.6831   4.9099
     5.7914   5.8117   7.8282   9.4601  10.5840  11.6560  17.8807

     occupation numbers 
     1.0000   1.0000   1.0000   1.0000   1.0000   1.0000   1.0000   1.0000
     1.0000   1.0000   1.0000   1.0000   1.0000   1.0000   1.0000   1.0000
     1.0000   1.0000   0.9997   0.0000   0.0000   0.0000   0.0000

          k =-0.0943-0.3771 0.6600 (  2729 PWs)   bands (ev):

   -83.1270 -83.1212 -46.6606 -46.6578 -46.5985 -46.5738 -46.5141 -46.5114
     3.4857   3.5208   3.9914   4.1831   4.3502   4.5734   4.6909   4.8795
     5.7970   5.8308   8.0966   9.1834  10.5436  11.5309  17.8967

     occupation numbers 
     1.0000   1.0000   1.0000   1.0000   1.0000   1.0000   1.0000   1.0000
     1.0000   1.0000   1.0000   1.0000   1.0000   1.0000   1.0000   1.0000
     1.0000   1.0000   0.9788   0.0000   0.0000   0.0000   0.0000

          k =-0.0707-0.3536 0.6364 (  2734 PWs)   bands (ev):

   -83.1267 -83.1214 -46.6607 -46.6579 -46.5977 -46.5746 -46.5140 -46.5114
     3.4815   3.5218   3.9962   4.1818   4.3618   4.5628   4.6990   4.8671
     5.7988   5.8373   8.2319   9.0418  10.5359  11.4865  17.9011

     occupation numbers 
     1.0000   1.0000   1.0000   1.0000   1.0000   1.0000   1.0000   1.0000
     1.0000   1.0000   1.0000   1.0000   1.0000   1.0000   1.0000   1.0000
     1.0000   1.0000   0.8349   0.0000   0.0000   0.0000   0.0000

          k =-0.0943-0.4243 0.7071 (  2733 PWs)   bands (ev):

   -83.1270 -83.1212 -46.6603 -46.6582 -46.5976 -46.5747 -46.5137 -46.5117
     3.5053   3.5088   3.9793   4.1428   4.3777   4.6319   4.6626   4.8817
     5.8007   5.8077   7.9455   9.4349  10.6458  11.3801  17.8551

     occupation numbers 
     1.0000   1.0000   1.0000   1.0000   1.0000   1.0000   1.0000   1.0000
     1.0000   1.0000   1.0000   1.0000   1.0000   1.0000   1.0000   1.0000
     1.0000   1.0000   0.9982   0.0000   0.0000   0.0000   0.0000

          k =-0.0707-0.4007 0.6835 (  2733 PWs)   bands (ev):

   -83.1262 -83.1219 -46.6605 -46.6585 -46.5950 -46.5773 -46.5134 -46.5115
     3.4907   3.5092   4.0060   4.1410   4.4021   4.6092   4.6704   4.8484
     5.8088   5.8291   8.2163   9.2168  10.5412  11.2332  17.9563

     occupation numbers 
     1.0000   1.0000   1.0000   1.0000   1.0000   1.0000   1.0000   1.0000
     1.0000   1.0000   1.0000   1.0000   1.0000   1.0000   1.0000   1.0000
     1.0000   1.0000   0.8672   0.0000   0.0000   0.0000   0.0000

          k =-0.0471-0.3771 0.6600 (  2736 PWs)   bands (ev):

   -83.1259 -83.1223 -46.6606 -46.6587 -46.5939 -46.5784 -46.5133 -46.5115
     3.4818   3.5111   4.0187   4.1465   4.4128   4.5825   4.6844   4.8319
     5.8121   5.8405   8.4025   9.0540  10.4619  11.2008  18.0110

     occupation numbers 
     1.0000   1.0000   1.0000   1.0000   1.0000   1.0000   1.0000   1.0000
     1.0000   1.0000   1.0000   1.0000   1.0000   1.0000   1.0000   1.0000
     1.0000   1.0000   0.2377   0.0000   0.0000   0.0000   0.0000

          k =-0.0236-0.3536 0.6364 (  2739 PWs)   bands (ev):

   -83.1261 -83.1221 -46.6606 -46.6585 -46.5948 -46.5775 -46.5135 -46.5114
     3.4814   3.5118   4.0163   4.1583   4.3954   4.5935   4.6687   4.8430
     5.8114   5.8401   8.3374   9.1163  10.4131  11.2771  18.0563

     occupation numbers 
     1.0000   1.0000   1.0000   1.0000   1.0000   1.0000   1.0000   1.0000
     1.0000   1.0000   1.0000   1.0000   1.0000   1.0000   1.0000   1.0000
     1.0000   1.0000   0.4746   0.0000   0.0000   0.0000   0.0000

          k = 0.0000-0.3300 0.6128 (  2732 PWs)   bands (ev):

   -83.1267 -83.1214 -46.6606 -46.6580 -46.5972 -46.5751 -46.5139 -46.5114
     3.4886   3.5123   4.0017   4.1728   4.3604   4.6320   4.6329   4.8728
     5.8059   5.8288   8.1006   9.3062  10.4382  11.4362  18.0564

     occupation numbers 
     1.0000   1.0000   1.0000   1.0000   1.0000   1.0000   1.0000   1.0000
     1.0000   1.0000   1.0000   1.0000   1.0000   1.0000   1.0000   1.0000
     1.0000   1.0000   0.9774   0.0000   0.0000   0.0000   0.0000

          k =-0.0471-0.4243 0.7071 (  2732 PWs)   bands (ev):

   -83.1255 -83.1226 -46.6603 -46.6592 -46.5919 -46.5804 -46.5128 -46.5117
     3.5005   3.5020   4.0112   4.0942   4.4601   4.6067   4.6927   4.8164
     5.8160   5.8222   8.3547   9.1125  10.6677  11.0229  17.8863

     occupation numbers 
     1.0000   1.0000   1.0000   1.0000   1.0000   1.0000   1.0000   1.0000
     1.0000   1.0000   1.0000   1.0000   1.0000   1.0000   1.0000   1.0000
     1.0000   1.0000   0.4050   0.0000   0.0000   0.0000   0.0000

          k =-0.0236-0.4007 0.6835 (  2740 PWs)   bands (ev):

   -83.1250 -83.1232 -46.6603 -46.6593 -46.5900 -46.5823 -46.5126 -46.5117
     3.4871   3.5042   4.0359   4.1019   4.4728   4.5646   4.7126   4.7938
     5.8204   5.8364   8.5745   8.9491  10.5562  10.9654  17.9809

     occupation numbers 
     1.0000   1.0000   1.0000   1.0000   1.0000   1.0000   1.0000   1.0000
     1.0000   1.0000   1.0000   1.0000   1.0000   1.0000   1.0000   1.0000
     1.0000   1.0000   0.0184   0.0000   0.0000   0.0000   0.0000

          k =-0.0000-0.3771 0.6600 (  2737 PWs)   bands (ev):

   -83.1253 -83.1229 -46.6605 -46.6590 -46.5915 -46.5809 -46.5129 -46.5115
     3.4808   3.5074   4.0331   4.1288   4.4439   4.5701   4.6943   4.8093
     5.8185   5.8428   8.5476   8.9824  10.4305  11.0797  18.0421

     occupation numbers 
     1.0000   1.0000   1.0000   1.0000   1.0000   1.0000   1.0000   1.0000
     1.0000   1.0000   1.0000   1.0000   1.0000   1.0000   1.0000   1.0000
     1.0000   1.0000   0.0283   0.0000   0.0000   0.0000   0.0000

          k =-0.7071 0.2828 0.0000 (  2734 PWs)   bands (ev):

   -83.1241 -83.1241 -46.6599 -46.6599 -46.5862 -46.5862 -46.5121 -46.5121
     3.4993   3.4993   4.0499   4.0499   4.5379   4.5379   4.7538   4.7538
     5.8243   5.8243   8.7498   8.7498  10.7873  10.7873  17.9172

     occupation numbers 
     1.0000   1.0000   1.0000   1.0000   1.0000   1.0000   1.0000   1.0000
     1.0000   1.0000   1.0000   1.0000   1.0000   1.0000   1.0000   1.0000
     1.0000   1.0000   0.0011   0.0011   0.0000   0.0000   0.0000

          k =-0.0471-0.3771 0.7071 (  2740 PWs)   bands (ev):

   -83.1254 -83.1227 -46.6604 -46.6591 -46.5917 -46.5806 -46.5129 -46.5116
     3.4876   3.5001   4.0384   4.1254   4.4361   4.5754   4.6924   4.8129
     5.8223   5.8369   8.4625   9.0648  10.5087  11.0094  18.3111

     occupation numbers 
     1.0000   1.0000   1.0000   1.0000   1.0000   1.0000   1.0000   1.0000
     1.0000   1.0000   1.0000   1.0000   1.0000   1.0000   1.0000   1.0000
     1.0000   1.0000   0.1048   0.0000   0.0000   0.0000   0.0000

          k =-0.0236-0.3536 0.6835 (  2734 PWs)   bands (ev):

   -83.1250 -83.1232 -46.6603 -46.6593 -46.5900 -46.5823 -46.5126 -46.5117
     3.4848   3.4988   4.0527   4.1170   4.4566   4.5501   4.7117   4.7936
     5.8260   5.8403   8.6027   8.9551  10.5168  10.9164  18.3773

     occupation numbers 
     1.0000   1.0000   1.0000   1.0000   1.0000   1.0000   1.0000   1.0000
     1.0000   1.0000   1.0000   1.0000   1.0000   1.0000   1.0000   1.0000
     1.0000   1.0000   0.0117   0.0000   0.0000   0.0000   0.0000

          k =-0.7071 0.3300 0.0000 (  2736 PWs)   bands (ev):

   -83.1241 -83.1241 -46.6599 -46.6599 -46.5862 -46.5862 -46.5121 -46.5121
     3.4916   3.4916   4.0801   4.0801   4.5088   4.5088   4.7528   4.7528
     5.8338   5.8338   8.7873   8.7873  10.6959  10.6959  18.4896

     occupation numbers 
     1.0000   1.0000   1.0000   1.0000   1.0000   1.0000   1.0000   1.0000
     1.0000   1.0000   1.0000   1.0000   1.0000   1.0000   1.0000   1.0000
     1.0000   1.0000   0.0006   0.0006   0.0000   0.0000   0.0000

     the Fermi energy is     8.3311 ev

!    total energy              =    -574.54280812 Ry
     estimated scf accuracy    <          1.3E-11 Ry
     smearing contrib. (-TS)   =      -0.00055426 Ry
     internal energy E=F+TS    =    -574.54225385 Ry

     The total energy is F=E-TS. E is the sum of the following terms:
     one-electron contribution =    -387.01859342 Ry
     hartree contribution      =     199.83799520 Ry
     xc contribution           =     -54.09738414 Ry
     ewald contribution        =    -333.26427150 Ry

     convergence has been achieved in  11 iterations

     Forces acting on atoms (cartesian axes, Ry/au):

     atom    1 type  1   force =    -0.00000000   -0.00000000   -0.00000000
     atom    2 type  1   force =    -0.00000000    0.00000000    0.00000000
     The non-local contrib.  to forces
     atom    1 type  1   force =    -0.00000000    0.00000000   -0.00000000
     atom    2 type  1   force =     0.00000000   -0.00000000    0.00000000
     The ionic contribution  to forces
     atom    1 type  1   force =     0.00000000   -0.00000000   -0.00000000
     atom    2 type  1   force =    -0.00000000   -0.00000000    0.00000000
     The local contribution  to forces
     atom    1 type  1   force =    -0.00000000   -0.00000000    0.00000000
     atom    2 type  1   force =     0.00000000    0.00000000    0.00000000
     The core correction contribution to forces
     atom    1 type  1   force =     0.00000000    0.00000000    0.00000000
     atom    2 type  1   force =     0.00000000    0.00000000    0.00000000
     The Hubbard contrib.    to forces
     atom    1 type  1   force =     0.00000000    0.00000000    0.00000000
     atom    2 type  1   force =     0.00000000    0.00000000    0.00000000
     The SCF correction term to forces
     atom    1 type  1   force =    -0.00000000   -0.00000000   -0.00000000
     atom    2 type  1   force =     0.00000000    0.00000000    0.00000000

     Total force =     0.000000     Total SCF correction =     0.000000


     Computing stress (Cartesian axis) and pressure

          total   stress  (Ry/bohr**3)                   (kbar)     P=        6.60
   0.00004487   0.00000000   0.00000000            6.60        0.00        0.00
   0.00000000   0.00004487  -0.00000000            0.00        6.60       -0.00
  -0.00000000  -0.00000000   0.00004487           -0.00       -0.00        6.60

     kinetic stress (kbar)  47321.27     -0.00     -0.00
                               -0.00  47321.27     -0.00
                               -0.00     -0.00  47321.27

     local   stress (kbar) -21841.14     -0.00      0.00
                               -0.00 -21841.14      0.00
                                0.00      0.00 -21841.14

     nonloc. stress (kbar)  -2669.08     -0.00     -0.00
                               -0.00  -2669.08      0.00
                               -0.00      0.00  -2669.08

     hartree stress (kbar)  24660.79     -0.00     -0.00
                               -0.00  24660.79     -0.00
                               -0.00     -0.00  24660.79

     exc-cor stress (kbar)  -6339.11      0.00     -0.00
                                0.00  -6339.11     -0.00
                               -0.00     -0.00  -6339.11

     corecor stress (kbar)      0.00      0.00      0.00
                                0.00      0.00      0.00
                                0.00      0.00      0.00

     ewald   stress (kbar) -41126.12     -0.00     -0.00
                               -0.00 -41126.12      0.00
                               -0.00      0.00 -41126.12

     hubbard stress (kbar)      0.00      0.00      0.00
                                0.00      0.00      0.00
                                0.00      0.00      0.00

     DFT-D   stress (kbar)      0.00      0.00      0.00
                                0.00      0.00      0.00
                                0.00      0.00      0.00

     XDM     stress (kbar)      0.00      0.00      0.00
                                0.00      0.00      0.00
                                0.00      0.00      0.00

     dft-nl  stress (kbar)      0.00      0.00      0.00
                                0.00      0.00      0.00
                                0.00      0.00      0.00

     TS-vdW  stress (kbar)      0.00      0.00      0.00
                                0.00      0.00      0.00
                                0.00      0.00      0.00


                                0.00      0.00      0.00
                                0.00      0.00      0.00


                                0.00      0.00      0.00


     Writing all to output data dir ./out/aiida.save/

     init_run     :      0.50s CPU      0.52s WALL (       1 calls)
     electrons    :      8.01s CPU      8.35s WALL (       1 calls)
     forces       :      0.05s CPU      0.06s WALL (       1 calls)
     stress       :      0.13s CPU      0.13s WALL (       1 calls)

     Called by init_run:
     wfcinit      :      0.19s CPU      0.21s WALL (       1 calls)
     wfcinit:atom :      0.00s CPU      0.00s WALL (      47 calls)
     wfcinit:wfcr :      0.18s CPU      0.20s WALL (      47 calls)
     potinit      :      0.02s CPU      0.02s WALL (       1 calls)
     hinit0       :      0.27s CPU      0.27s WALL (       1 calls)

     Called by electrons:
     c_bands      :      7.04s CPU      7.31s WALL (      12 calls)
     sum_band     :      0.87s CPU      0.92s WALL (      12 calls)
     v_of_rho     :      0.06s CPU      0.06s WALL (      12 calls)
     v_h          :      0.00s CPU      0.00s WALL (      12 calls)
     v_xc         :      0.05s CPU      0.05s WALL (      12 calls)
     mix_rho      :      0.01s CPU      0.01s WALL (      12 calls)

     Called by c_bands:
     init_us_2    :      0.12s CPU      0.12s WALL (    1269 calls)
     cegterg      :      6.09s CPU      6.28s WALL (     564 calls)

     Called by sum_band:
     sum_band:wei :      0.02s CPU      0.03s WALL (      12 calls)
     sum_band:loo :      0.83s CPU      0.87s WALL (      12 calls)
     sum_band:buf :      0.01s CPU      0.01s WALL (     564 calls)
     sum_band:ini :      0.05s CPU      0.05s WALL (     564 calls)

     Called by *egterg:
     cdiaghg      :      1.16s CPU      1.19s WALL (    1798 calls)
     cegterg:over :      0.30s CPU      0.31s WALL (    1281 calls)
     cegterg:upda :      0.18s CPU      0.18s WALL (    1281 calls)
     cegterg:last :      0.22s CPU      0.22s WALL (     981 calls)
     cdiaghg:chol :      0.08s CPU      0.08s WALL (    1798 calls)
     cdiaghg:inve :      0.03s CPU      0.03s WALL (    1798 calls)
     cdiaghg:para :      0.11s CPU      0.12s WALL (    3596 calls)
     h_psi        :      4.24s CPU      4.39s WALL (    1892 calls)
     g_psi        :      0.02s CPU      0.02s WALL (    1281 calls)

     Called by h_psi:
     h_psi:calbec :      0.20s CPU      0.21s WALL (    1892 calls)
     vloc_psi     :      3.86s CPU      3.99s WALL (    1892 calls)
     add_vuspsi   :      0.16s CPU      0.16s WALL (    1892 calls)

     General routines
     calbec       :      0.23s CPU      0.24s WALL (    2127 calls)
     fft          :      0.27s CPU      0.27s WALL (     128 calls)
     ffts         :      0.00s CPU      0.00s WALL (      12 calls)
     fftw         :      4.14s CPU      4.28s WALL (   77460 calls)

     Parallel routines

     PWSCF        :      8.94s CPU      9.63s WALL


   This run was terminated on:  12:42:35   8Apr2022            

=------------------------------------------------------------------------------=
   JOB DONE.
=------------------------------------------------------------------------------=
